n -t * -s 0  -x 112 -y 120 -Z 0 -z 50  -v circle -c black
n -t * -s 1  -x 244 -y 210 -Z 0 -z 50  -v circle -c black
n -t * -s 2  -x 124 -y 297 -Z 0 -z 50  -v circle -c black
n -t * -s 3  -x 130 -y 460 -Z 0 -z 50  -v circle -c black
n -t * -s 4  -x 410 -y 340 -Z 0 -z 50  -v circle -c black
n -t * -s 5  -x 412 -y 527 -Z 0 -z 50  -v circle -c black
n -t * -s 6  -x 257 -y 594 -Z 0 -z 50  -v circle -c black
n -t * -s 7  -x 455 -y 10 -Z 0 -z 50  -v circle -c black
n -t * -s 8  -x 384 -y 158 -Z 0 -z 50  -v circle -c black
n -t * -s 9  -x 587 -y 615 -Z 0 -z 50  -v circle -c black
V -t * -v 1.0a5 -a 0
W -t * -x 902 -y 700
A -t * -n 1 -p 0 -o 0x7fffffff -c 30 -a 1
A -t * -h 1 -m 1073741823 -s 0
n -t 0.000000 -s 0 -x 112.000000 -y 120.000000 -U -4.438827 -V 12.218707 -T 20.951480
n -t 0.000000 -s 9 -x 587.000000 -y 615.000000 -U 3.221832 -V -12.594435 -T 17.071032
n -t 0 -s 0 -S DLABEL -l "Source1" -L ""
n -t 0 -s 0 -S COLOR -c green -o green -i green -I green
n -t 0 -s 9 -S DLABEL -l "Destination1" -L ""
n -t 0 -s 9 -S COLOR -c green -o green -i green -I green
+ -t 0.000000000 -s 0 -d -1 -p cbr -e 1000 -c 2 -a 0 -i 0 -k AGT 
- -t 0.000000000 -s 0 -d -1 -p cbr -e 1000 -c 2 -a 0 -i 0 -k AGT
h -t 0.000000000 -s 0 -d -1 -p cbr -e 1000 -c 2 -a 0 -i 0 -k AGT
+ -t 0.000000000 -s 0 -d -1 -p cbr -e 24 -c 2 -a 0 -i 1 -k AGT 
- -t 0.000000000 -s 0 -d -1 -p cbr -e 24 -c 2 -a 0 -i 1 -k AGT
h -t 0.000000000 -s 0 -d -1 -p cbr -e 24 -c 2 -a 0 -i 1 -k AGT
+ -t 0.003769945 -s 0 -d -1 -p message -e 32 -c 2 -a 0 -i 2 -k RTR 
- -t 0.003769945 -s 0 -d -1 -p message -e 32 -c 2 -a 0 -i 2 -k RTR
h -t 0.003769945 -s 0 -d -1 -p message -e 32 -c 2 -a 0 -i 2 -k RTR
+ -t 0.003884945 -s 0 -d -1 -p message -e 90 -c 2 -a 0 -i 2 -k MAC 
- -t 0.003884945 -s 0 -d -1 -p message -e 90 -c 2 -a 0 -i 2 -k MAC
h -t 0.003884945 -s 0 -d -1 -p message -e 90 -c 2 -a 0 -i 2 -k MAC
r -t 0.004605478 -s 1 -d -1 -p message -e 32 -c 2 -a 0 -i 2 -k MAC
r -t 0.004605536 -s 2 -d -1 -p message -e 32 -c 2 -a 0 -i 2 -k MAC
r -t 0.004630478 -s 1 -d -1 -p message -e 32 -c 2 -a 0 -i 2 -k RTR
r -t 0.004630536 -s 2 -d -1 -p message -e 32 -c 2 -a 0 -i 2 -k RTR
+ -t 0.034809998 -s 2 -d -1 -p message -e 32 -c 2 -a 0 -i 3 -k RTR 
- -t 0.034809998 -s 2 -d -1 -p message -e 32 -c 2 -a 0 -i 3 -k RTR
h -t 0.034809998 -s 2 -d -1 -p message -e 32 -c 2 -a 0 -i 3 -k RTR
+ -t 0.035124998 -s 2 -d -1 -p message -e 90 -c 2 -a 0 -i 3 -k MAC 
- -t 0.035124998 -s 2 -d -1 -p message -e 90 -c 2 -a 0 -i 3 -k MAC
h -t 0.035124998 -s 2 -d -1 -p message -e 90 -c 2 -a 0 -i 3 -k MAC
r -t 0.035845492 -s 1 -d -1 -p message -e 32 -c 2 -a 0 -i 3 -k MAC
r -t 0.035845542 -s 3 -d -1 -p message -e 32 -c 2 -a 0 -i 3 -k MAC
r -t 0.035845588 -s 0 -d -1 -p message -e 32 -c 2 -a 0 -i 3 -k MAC
r -t 0.035870492 -s 1 -d -1 -p message -e 32 -c 2 -a 0 -i 3 -k RTR
r -t 0.035870542 -s 3 -d -1 -p message -e 32 -c 2 -a 0 -i 3 -k RTR
r -t 0.035870588 -s 0 -d -1 -p message -e 32 -c 2 -a 0 -i 3 -k RTR
+ -t 0.040000000 -s 0 -d -1 -p cbr -e 1000 -c 2 -a 0 -i 4 -k AGT 
- -t 0.040000000 -s 0 -d -1 -p cbr -e 1000 -c 2 -a 0 -i 4 -k AGT
h -t 0.040000000 -s 0 -d -1 -p cbr -e 1000 -c 2 -a 0 -i 4 -k AGT
+ -t 0.040000000 -s 0 -d -1 -p cbr -e 24 -c 2 -a 0 -i 5 -k AGT 
- -t 0.040000000 -s 0 -d -1 -p cbr -e 24 -c 2 -a 0 -i 5 -k AGT
h -t 0.040000000 -s 0 -d -1 -p cbr -e 24 -c 2 -a 0 -i 5 -k AGT
+ -t 0.080000000 -s 0 -d -1 -p cbr -e 1000 -c 2 -a 0 -i 6 -k AGT 
- -t 0.080000000 -s 0 -d -1 -p cbr -e 1000 -c 2 -a 0 -i 6 -k AGT
h -t 0.080000000 -s 0 -d -1 -p cbr -e 1000 -c 2 -a 0 -i 6 -k AGT
+ -t 0.080000000 -s 0 -d -1 -p cbr -e 24 -c 2 -a 0 -i 7 -k AGT 
- -t 0.080000000 -s 0 -d -1 -p cbr -e 24 -c 2 -a 0 -i 7 -k AGT
h -t 0.080000000 -s 0 -d -1 -p cbr -e 24 -c 2 -a 0 -i 7 -k AGT
d -t 0.080000000 -s 0 -d -1 -p cbr -e 1020 -c 2 -a 0 -i 0 -k RTR
+ -t 0.120000000 -s 0 -d -1 -p cbr -e 1000 -c 2 -a 0 -i 8 -k AGT 
- -t 0.120000000 -s 0 -d -1 -p cbr -e 1000 -c 2 -a 0 -i 8 -k AGT
h -t 0.120000000 -s 0 -d -1 -p cbr -e 1000 -c 2 -a 0 -i 8 -k AGT
d -t 0.120000000 -s 0 -d -1 -p cbr -e 44 -c 2 -a 0 -i 1 -k RTR
+ -t 0.120000000 -s 0 -d -1 -p cbr -e 24 -c 2 -a 0 -i 9 -k AGT 
- -t 0.120000000 -s 0 -d -1 -p cbr -e 24 -c 2 -a 0 -i 9 -k AGT
h -t 0.120000000 -s 0 -d -1 -p cbr -e 24 -c 2 -a 0 -i 9 -k AGT
d -t 0.120000000 -s 0 -d -1 -p cbr -e 1020 -c 2 -a 0 -i 4 -k RTR
+ -t 0.160000000 -s 0 -d -1 -p cbr -e 1000 -c 2 -a 0 -i 10 -k AGT 
- -t 0.160000000 -s 0 -d -1 -p cbr -e 1000 -c 2 -a 0 -i 10 -k AGT
h -t 0.160000000 -s 0 -d -1 -p cbr -e 1000 -c 2 -a 0 -i 10 -k AGT
d -t 0.160000000 -s 0 -d -1 -p cbr -e 44 -c 2 -a 0 -i 5 -k RTR
+ -t 0.160000000 -s 0 -d -1 -p cbr -e 24 -c 2 -a 0 -i 11 -k AGT 
- -t 0.160000000 -s 0 -d -1 -p cbr -e 24 -c 2 -a 0 -i 11 -k AGT
h -t 0.160000000 -s 0 -d -1 -p cbr -e 24 -c 2 -a 0 -i 11 -k AGT
d -t 0.160000000 -s 0 -d -1 -p cbr -e 1020 -c 2 -a 0 -i 6 -k RTR
+ -t 0.177993395 -s 3 -d -1 -p message -e 32 -c 2 -a 0 -i 12 -k RTR 
- -t 0.177993395 -s 3 -d -1 -p message -e 32 -c 2 -a 0 -i 12 -k RTR
h -t 0.177993395 -s 3 -d -1 -p message -e 32 -c 2 -a 0 -i 12 -k RTR
+ -t 0.178388395 -s 3 -d -1 -p message -e 90 -c 2 -a 0 -i 12 -k MAC 
- -t 0.178388395 -s 3 -d -1 -p message -e 90 -c 2 -a 0 -i 12 -k MAC
h -t 0.178388395 -s 3 -d -1 -p message -e 90 -c 2 -a 0 -i 12 -k MAC
r -t 0.179108939 -s 2 -d -1 -p message -e 32 -c 2 -a 0 -i 12 -k MAC
r -t 0.179109011 -s 6 -d -1 -p message -e 32 -c 2 -a 0 -i 12 -k MAC
r -t 0.179133939 -s 2 -d -1 -p message -e 32 -c 2 -a 0 -i 12 -k RTR
r -t 0.179134011 -s 6 -d -1 -p message -e 32 -c 2 -a 0 -i 12 -k RTR
+ -t 0.200000000 -s 0 -d -1 -p cbr -e 1000 -c 2 -a 0 -i 13 -k AGT 
- -t 0.200000000 -s 0 -d -1 -p cbr -e 1000 -c 2 -a 0 -i 13 -k AGT
h -t 0.200000000 -s 0 -d -1 -p cbr -e 1000 -c 2 -a 0 -i 13 -k AGT
d -t 0.200000000 -s 0 -d -1 -p cbr -e 44 -c 2 -a 0 -i 7 -k RTR
+ -t 0.200000000 -s 0 -d -1 -p cbr -e 24 -c 2 -a 0 -i 14 -k AGT 
- -t 0.200000000 -s 0 -d -1 -p cbr -e 24 -c 2 -a 0 -i 14 -k AGT
h -t 0.200000000 -s 0 -d -1 -p cbr -e 24 -c 2 -a 0 -i 14 -k AGT
d -t 0.200000000 -s 0 -d -1 -p cbr -e 1020 -c 2 -a 0 -i 8 -k RTR
+ -t 0.240000000 -s 0 -d -1 -p cbr -e 1000 -c 2 -a 0 -i 15 -k AGT 
- -t 0.240000000 -s 0 -d -1 -p cbr -e 1000 -c 2 -a 0 -i 15 -k AGT
h -t 0.240000000 -s 0 -d -1 -p cbr -e 1000 -c 2 -a 0 -i 15 -k AGT
d -t 0.240000000 -s 0 -d -1 -p cbr -e 44 -c 2 -a 0 -i 9 -k RTR
+ -t 0.240000000 -s 0 -d -1 -p cbr -e 24 -c 2 -a 0 -i 16 -k AGT 
- -t 0.240000000 -s 0 -d -1 -p cbr -e 24 -c 2 -a 0 -i 16 -k AGT
h -t 0.240000000 -s 0 -d -1 -p cbr -e 24 -c 2 -a 0 -i 16 -k AGT
d -t 0.240000000 -s 0 -d -1 -p cbr -e 1020 -c 2 -a 0 -i 10 -k RTR
+ -t 0.280000000 -s 0 -d -1 -p cbr -e 1000 -c 2 -a 0 -i 17 -k AGT 
- -t 0.280000000 -s 0 -d -1 -p cbr -e 1000 -c 2 -a 0 -i 17 -k AGT
h -t 0.280000000 -s 0 -d -1 -p cbr -e 1000 -c 2 -a 0 -i 17 -k AGT
d -t 0.280000000 -s 0 -d -1 -p cbr -e 44 -c 2 -a 0 -i 11 -k RTR
+ -t 0.280000000 -s 0 -d -1 -p cbr -e 24 -c 2 -a 0 -i 18 -k AGT 
- -t 0.280000000 -s 0 -d -1 -p cbr -e 24 -c 2 -a 0 -i 18 -k AGT
h -t 0.280000000 -s 0 -d -1 -p cbr -e 24 -c 2 -a 0 -i 18 -k AGT
d -t 0.280000000 -s 0 -d -1 -p cbr -e 1020 -c 2 -a 0 -i 13 -k RTR
+ -t 0.320000000 -s 0 -d -1 -p cbr -e 1000 -c 2 -a 0 -i 19 -k AGT 
- -t 0.320000000 -s 0 -d -1 -p cbr -e 1000 -c 2 -a 0 -i 19 -k AGT
h -t 0.320000000 -s 0 -d -1 -p cbr -e 1000 -c 2 -a 0 -i 19 -k AGT
d -t 0.320000000 -s 0 -d -1 -p cbr -e 44 -c 2 -a 0 -i 14 -k RTR
+ -t 0.320000000 -s 0 -d -1 -p cbr -e 24 -c 2 -a 0 -i 20 -k AGT 
- -t 0.320000000 -s 0 -d -1 -p cbr -e 24 -c 2 -a 0 -i 20 -k AGT
h -t 0.320000000 -s 0 -d -1 -p cbr -e 24 -c 2 -a 0 -i 20 -k AGT
d -t 0.320000000 -s 0 -d -1 -p cbr -e 1020 -c 2 -a 0 -i 15 -k RTR
+ -t 0.360000000 -s 0 -d -1 -p cbr -e 1000 -c 2 -a 0 -i 21 -k AGT 
- -t 0.360000000 -s 0 -d -1 -p cbr -e 1000 -c 2 -a 0 -i 21 -k AGT
h -t 0.360000000 -s 0 -d -1 -p cbr -e 1000 -c 2 -a 0 -i 21 -k AGT
d -t 0.360000000 -s 0 -d -1 -p cbr -e 44 -c 2 -a 0 -i 16 -k RTR
+ -t 0.360000000 -s 0 -d -1 -p cbr -e 24 -c 2 -a 0 -i 22 -k AGT 
- -t 0.360000000 -s 0 -d -1 -p cbr -e 24 -c 2 -a 0 -i 22 -k AGT
h -t 0.360000000 -s 0 -d -1 -p cbr -e 24 -c 2 -a 0 -i 22 -k AGT
d -t 0.360000000 -s 0 -d -1 -p cbr -e 1020 -c 2 -a 0 -i 17 -k RTR
+ -t 0.400000000 -s 0 -d -1 -p cbr -e 1000 -c 2 -a 0 -i 23 -k AGT 
- -t 0.400000000 -s 0 -d -1 -p cbr -e 1000 -c 2 -a 0 -i 23 -k AGT
h -t 0.400000000 -s 0 -d -1 -p cbr -e 1000 -c 2 -a 0 -i 23 -k AGT
d -t 0.400000000 -s 0 -d -1 -p cbr -e 44 -c 2 -a 0 -i 18 -k RTR
+ -t 0.400000000 -s 0 -d -1 -p cbr -e 24 -c 2 -a 0 -i 24 -k AGT 
- -t 0.400000000 -s 0 -d -1 -p cbr -e 24 -c 2 -a 0 -i 24 -k AGT
h -t 0.400000000 -s 0 -d -1 -p cbr -e 24 -c 2 -a 0 -i 24 -k AGT
d -t 0.400000000 -s 0 -d -1 -p cbr -e 1020 -c 2 -a 0 -i 19 -k RTR
+ -t 0.440000000 -s 0 -d -1 -p cbr -e 1000 -c 2 -a 0 -i 25 -k AGT 
- -t 0.440000000 -s 0 -d -1 -p cbr -e 1000 -c 2 -a 0 -i 25 -k AGT
h -t 0.440000000 -s 0 -d -1 -p cbr -e 1000 -c 2 -a 0 -i 25 -k AGT
d -t 0.440000000 -s 0 -d -1 -p cbr -e 44 -c 2 -a 0 -i 20 -k RTR
+ -t 0.440000000 -s 0 -d -1 -p cbr -e 24 -c 2 -a 0 -i 26 -k AGT 
- -t 0.440000000 -s 0 -d -1 -p cbr -e 24 -c 2 -a 0 -i 26 -k AGT
h -t 0.440000000 -s 0 -d -1 -p cbr -e 24 -c 2 -a 0 -i 26 -k AGT
d -t 0.440000000 -s 0 -d -1 -p cbr -e 1020 -c 2 -a 0 -i 21 -k RTR
+ -t 0.471784383 -s 8 -d -1 -p message -e 32 -c 2 -a 0 -i 27 -k RTR 
- -t 0.471784383 -s 8 -d -1 -p message -e 32 -c 2 -a 0 -i 27 -k RTR
h -t 0.471784383 -s 8 -d -1 -p message -e 32 -c 2 -a 0 -i 27 -k RTR
+ -t 0.472099383 -s 8 -d -1 -p message -e 90 -c 2 -a 0 -i 27 -k MAC 
- -t 0.472099383 -s 8 -d -1 -p message -e 90 -c 2 -a 0 -i 27 -k MAC
h -t 0.472099383 -s 8 -d -1 -p message -e 90 -c 2 -a 0 -i 27 -k MAC
r -t 0.472819881 -s 1 -d -1 -p message -e 32 -c 2 -a 0 -i 27 -k MAC
r -t 0.472819930 -s 7 -d -1 -p message -e 32 -c 2 -a 0 -i 27 -k MAC
r -t 0.472819996 -s 4 -d -1 -p message -e 32 -c 2 -a 0 -i 27 -k MAC
r -t 0.472844881 -s 1 -d -1 -p message -e 32 -c 2 -a 0 -i 27 -k RTR
r -t 0.472844930 -s 7 -d -1 -p message -e 32 -c 2 -a 0 -i 27 -k RTR
r -t 0.472844996 -s 4 -d -1 -p message -e 32 -c 2 -a 0 -i 27 -k RTR
+ -t 0.480000000 -s 0 -d -1 -p cbr -e 1000 -c 2 -a 0 -i 28 -k AGT 
- -t 0.480000000 -s 0 -d -1 -p cbr -e 1000 -c 2 -a 0 -i 28 -k AGT
h -t 0.480000000 -s 0 -d -1 -p cbr -e 1000 -c 2 -a 0 -i 28 -k AGT
d -t 0.480000000 -s 0 -d -1 -p cbr -e 44 -c 2 -a 0 -i 22 -k RTR
+ -t 0.480000000 -s 0 -d -1 -p cbr -e 24 -c 2 -a 0 -i 29 -k AGT 
- -t 0.480000000 -s 0 -d -1 -p cbr -e 24 -c 2 -a 0 -i 29 -k AGT
h -t 0.480000000 -s 0 -d -1 -p cbr -e 24 -c 2 -a 0 -i 29 -k AGT
d -t 0.480000000 -s 0 -d -1 -p cbr -e 1020 -c 2 -a 0 -i 23 -k RTR
+ -t 0.520000000 -s 0 -d -1 -p cbr -e 1000 -c 2 -a 0 -i 30 -k AGT 
- -t 0.520000000 -s 0 -d -1 -p cbr -e 1000 -c 2 -a 0 -i 30 -k AGT
h -t 0.520000000 -s 0 -d -1 -p cbr -e 1000 -c 2 -a 0 -i 30 -k AGT
d -t 0.520000000 -s 0 -d -1 -p cbr -e 44 -c 2 -a 0 -i 24 -k RTR
+ -t 0.520000000 -s 0 -d -1 -p cbr -e 24 -c 2 -a 0 -i 31 -k AGT 
- -t 0.520000000 -s 0 -d -1 -p cbr -e 24 -c 2 -a 0 -i 31 -k AGT
h -t 0.520000000 -s 0 -d -1 -p cbr -e 24 -c 2 -a 0 -i 31 -k AGT
d -t 0.520000000 -s 0 -d -1 -p cbr -e 1020 -c 2 -a 0 -i 25 -k RTR
+ -t 0.560000000 -s 0 -d -1 -p cbr -e 1000 -c 2 -a 0 -i 32 -k AGT 
- -t 0.560000000 -s 0 -d -1 -p cbr -e 1000 -c 2 -a 0 -i 32 -k AGT
h -t 0.560000000 -s 0 -d -1 -p cbr -e 1000 -c 2 -a 0 -i 32 -k AGT
d -t 0.560000000 -s 0 -d -1 -p cbr -e 44 -c 2 -a 0 -i 26 -k RTR
+ -t 0.560000000 -s 0 -d -1 -p cbr -e 24 -c 2 -a 0 -i 33 -k AGT 
- -t 0.560000000 -s 0 -d -1 -p cbr -e 24 -c 2 -a 0 -i 33 -k AGT
h -t 0.560000000 -s 0 -d -1 -p cbr -e 24 -c 2 -a 0 -i 33 -k AGT
d -t 0.560000000 -s 0 -d -1 -p cbr -e 1020 -c 2 -a 0 -i 28 -k RTR
+ -t 0.600000000 -s 0 -d -1 -p cbr -e 1000 -c 2 -a 0 -i 34 -k AGT 
- -t 0.600000000 -s 0 -d -1 -p cbr -e 1000 -c 2 -a 0 -i 34 -k AGT
h -t 0.600000000 -s 0 -d -1 -p cbr -e 1000 -c 2 -a 0 -i 34 -k AGT
d -t 0.600000000 -s 0 -d -1 -p cbr -e 44 -c 2 -a 0 -i 29 -k RTR
+ -t 0.600000000 -s 0 -d -1 -p cbr -e 24 -c 2 -a 0 -i 35 -k AGT 
- -t 0.600000000 -s 0 -d -1 -p cbr -e 24 -c 2 -a 0 -i 35 -k AGT
h -t 0.600000000 -s 0 -d -1 -p cbr -e 24 -c 2 -a 0 -i 35 -k AGT
d -t 0.600000000 -s 0 -d -1 -p cbr -e 1020 -c 2 -a 0 -i 30 -k RTR
+ -t 0.632846612 -s 6 -d -1 -p message -e 32 -c 2 -a 0 -i 36 -k RTR 
- -t 0.632846612 -s 6 -d -1 -p message -e 32 -c 2 -a 0 -i 36 -k RTR
h -t 0.632846612 -s 6 -d -1 -p message -e 32 -c 2 -a 0 -i 36 -k RTR
+ -t 0.633321612 -s 6 -d -1 -p message -e 90 -c 2 -a 0 -i 36 -k MAC 
- -t 0.633321612 -s 6 -d -1 -p message -e 90 -c 2 -a 0 -i 36 -k MAC
h -t 0.633321612 -s 6 -d -1 -p message -e 90 -c 2 -a 0 -i 36 -k MAC
r -t 0.634042174 -s 5 -d -1 -p message -e 32 -c 2 -a 0 -i 36 -k MAC
r -t 0.634042227 -s 3 -d -1 -p message -e 32 -c 2 -a 0 -i 36 -k MAC
r -t 0.634067174 -s 5 -d -1 -p message -e 32 -c 2 -a 0 -i 36 -k RTR
r -t 0.634067227 -s 3 -d -1 -p message -e 32 -c 2 -a 0 -i 36 -k RTR
+ -t 0.640000000 -s 0 -d -1 -p cbr -e 1000 -c 2 -a 0 -i 37 -k AGT 
- -t 0.640000000 -s 0 -d -1 -p cbr -e 1000 -c 2 -a 0 -i 37 -k AGT
h -t 0.640000000 -s 0 -d -1 -p cbr -e 1000 -c 2 -a 0 -i 37 -k AGT
d -t 0.640000000 -s 0 -d -1 -p cbr -e 44 -c 2 -a 0 -i 31 -k RTR
+ -t 0.640000000 -s 0 -d -1 -p cbr -e 24 -c 2 -a 0 -i 38 -k AGT 
- -t 0.640000000 -s 0 -d -1 -p cbr -e 24 -c 2 -a 0 -i 38 -k AGT
h -t 0.640000000 -s 0 -d -1 -p cbr -e 24 -c 2 -a 0 -i 38 -k AGT
d -t 0.640000000 -s 0 -d -1 -p cbr -e 1020 -c 2 -a 0 -i 32 -k RTR
+ -t 0.680000000 -s 0 -d -1 -p cbr -e 1000 -c 2 -a 0 -i 39 -k AGT 
- -t 0.680000000 -s 0 -d -1 -p cbr -e 1000 -c 2 -a 0 -i 39 -k AGT
h -t 0.680000000 -s 0 -d -1 -p cbr -e 1000 -c 2 -a 0 -i 39 -k AGT
d -t 0.680000000 -s 0 -d -1 -p cbr -e 44 -c 2 -a 0 -i 33 -k RTR
+ -t 0.680000000 -s 0 -d -1 -p cbr -e 24 -c 2 -a 0 -i 40 -k AGT 
- -t 0.680000000 -s 0 -d -1 -p cbr -e 24 -c 2 -a 0 -i 40 -k AGT
h -t 0.680000000 -s 0 -d -1 -p cbr -e 24 -c 2 -a 0 -i 40 -k AGT
d -t 0.680000000 -s 0 -d -1 -p cbr -e 1020 -c 2 -a 0 -i 34 -k RTR
+ -t 0.720000000 -s 0 -d -1 -p cbr -e 1000 -c 2 -a 0 -i 41 -k AGT 
- -t 0.720000000 -s 0 -d -1 -p cbr -e 1000 -c 2 -a 0 -i 41 -k AGT
h -t 0.720000000 -s 0 -d -1 -p cbr -e 1000 -c 2 -a 0 -i 41 -k AGT
d -t 0.720000000 -s 0 -d -1 -p cbr -e 44 -c 2 -a 0 -i 35 -k RTR
+ -t 0.720000000 -s 0 -d -1 -p cbr -e 24 -c 2 -a 0 -i 42 -k AGT 
- -t 0.720000000 -s 0 -d -1 -p cbr -e 24 -c 2 -a 0 -i 42 -k AGT
h -t 0.720000000 -s 0 -d -1 -p cbr -e 24 -c 2 -a 0 -i 42 -k AGT
d -t 0.720000000 -s 0 -d -1 -p cbr -e 1020 -c 2 -a 0 -i 37 -k RTR
+ -t 0.760000000 -s 0 -d -1 -p cbr -e 1000 -c 2 -a 0 -i 43 -k AGT 
- -t 0.760000000 -s 0 -d -1 -p cbr -e 1000 -c 2 -a 0 -i 43 -k AGT
h -t 0.760000000 -s 0 -d -1 -p cbr -e 1000 -c 2 -a 0 -i 43 -k AGT
d -t 0.760000000 -s 0 -d -1 -p cbr -e 44 -c 2 -a 0 -i 38 -k RTR
+ -t 0.760000000 -s 0 -d -1 -p cbr -e 24 -c 2 -a 0 -i 44 -k AGT 
- -t 0.760000000 -s 0 -d -1 -p cbr -e 24 -c 2 -a 0 -i 44 -k AGT
h -t 0.760000000 -s 0 -d -1 -p cbr -e 24 -c 2 -a 0 -i 44 -k AGT
d -t 0.760000000 -s 0 -d -1 -p cbr -e 1020 -c 2 -a 0 -i 39 -k RTR
+ -t 0.800000000 -s 0 -d -1 -p cbr -e 1000 -c 2 -a 0 -i 45 -k AGT 
- -t 0.800000000 -s 0 -d -1 -p cbr -e 1000 -c 2 -a 0 -i 45 -k AGT
h -t 0.800000000 -s 0 -d -1 -p cbr -e 1000 -c 2 -a 0 -i 45 -k AGT
d -t 0.800000000 -s 0 -d -1 -p cbr -e 44 -c 2 -a 0 -i 40 -k RTR
+ -t 0.800000000 -s 0 -d -1 -p cbr -e 24 -c 2 -a 0 -i 46 -k AGT 
- -t 0.800000000 -s 0 -d -1 -p cbr -e 24 -c 2 -a 0 -i 46 -k AGT
h -t 0.800000000 -s 0 -d -1 -p cbr -e 24 -c 2 -a 0 -i 46 -k AGT
d -t 0.800000000 -s 0 -d -1 -p cbr -e 1020 -c 2 -a 0 -i 41 -k RTR
+ -t 0.840000000 -s 0 -d -1 -p cbr -e 1000 -c 2 -a 0 -i 47 -k AGT 
- -t 0.840000000 -s 0 -d -1 -p cbr -e 1000 -c 2 -a 0 -i 47 -k AGT
h -t 0.840000000 -s 0 -d -1 -p cbr -e 1000 -c 2 -a 0 -i 47 -k AGT
d -t 0.840000000 -s 0 -d -1 -p cbr -e 44 -c 2 -a 0 -i 42 -k RTR
+ -t 0.840000000 -s 0 -d -1 -p cbr -e 24 -c 2 -a 0 -i 48 -k AGT 
- -t 0.840000000 -s 0 -d -1 -p cbr -e 24 -c 2 -a 0 -i 48 -k AGT
h -t 0.840000000 -s 0 -d -1 -p cbr -e 24 -c 2 -a 0 -i 48 -k AGT
d -t 0.840000000 -s 0 -d -1 -p cbr -e 1020 -c 2 -a 0 -i 43 -k RTR
+ -t 0.880000000 -s 0 -d -1 -p cbr -e 1000 -c 2 -a 0 -i 49 -k AGT 
- -t 0.880000000 -s 0 -d -1 -p cbr -e 1000 -c 2 -a 0 -i 49 -k AGT
h -t 0.880000000 -s 0 -d -1 -p cbr -e 1000 -c 2 -a 0 -i 49 -k AGT
d -t 0.880000000 -s 0 -d -1 -p cbr -e 44 -c 2 -a 0 -i 44 -k RTR
+ -t 0.880000000 -s 0 -d -1 -p cbr -e 24 -c 2 -a 0 -i 50 -k AGT 
- -t 0.880000000 -s 0 -d -1 -p cbr -e 24 -c 2 -a 0 -i 50 -k AGT
h -t 0.880000000 -s 0 -d -1 -p cbr -e 24 -c 2 -a 0 -i 50 -k AGT
d -t 0.880000000 -s 0 -d -1 -p cbr -e 1020 -c 2 -a 0 -i 45 -k RTR
+ -t 0.884759020 -s 4 -d -1 -p message -e 32 -c 2 -a 0 -i 51 -k RTR 
- -t 0.884759020 -s 4 -d -1 -p message -e 32 -c 2 -a 0 -i 51 -k RTR
h -t 0.884759020 -s 4 -d -1 -p message -e 32 -c 2 -a 0 -i 51 -k RTR
+ -t 0.885134020 -s 4 -d -1 -p message -e 90 -c 2 -a 0 -i 51 -k MAC 
- -t 0.885134020 -s 4 -d -1 -p message -e 90 -c 2 -a 0 -i 51 -k MAC
h -t 0.885134020 -s 4 -d -1 -p message -e 90 -c 2 -a 0 -i 51 -k MAC
r -t 0.885854633 -s 8 -d -1 -p message -e 32 -c 2 -a 0 -i 51 -k MAC
r -t 0.885854644 -s 5 -d -1 -p message -e 32 -c 2 -a 0 -i 51 -k MAC
r -t 0.885854723 -s 1 -d -1 -p message -e 32 -c 2 -a 0 -i 51 -k MAC
r -t 0.885879633 -s 8 -d -1 -p message -e 32 -c 2 -a 0 -i 51 -k RTR
r -t 0.885879644 -s 5 -d -1 -p message -e 32 -c 2 -a 0 -i 51 -k RTR
r -t 0.885879723 -s 1 -d -1 -p message -e 32 -c 2 -a 0 -i 51 -k RTR
+ -t 0.920000000 -s 0 -d -1 -p cbr -e 1000 -c 2 -a 0 -i 52 -k AGT 
- -t 0.920000000 -s 0 -d -1 -p cbr -e 1000 -c 2 -a 0 -i 52 -k AGT
h -t 0.920000000 -s 0 -d -1 -p cbr -e 1000 -c 2 -a 0 -i 52 -k AGT
d -t 0.920000000 -s 0 -d -1 -p cbr -e 44 -c 2 -a 0 -i 46 -k RTR
+ -t 0.920000000 -s 0 -d -1 -p cbr -e 24 -c 2 -a 0 -i 53 -k AGT 
- -t 0.920000000 -s 0 -d -1 -p cbr -e 24 -c 2 -a 0 -i 53 -k AGT
h -t 0.920000000 -s 0 -d -1 -p cbr -e 24 -c 2 -a 0 -i 53 -k AGT
d -t 0.920000000 -s 0 -d -1 -p cbr -e 1020 -c 2 -a 0 -i 47 -k RTR
+ -t 0.960000000 -s 0 -d -1 -p cbr -e 1000 -c 2 -a 0 -i 54 -k AGT 
- -t 0.960000000 -s 0 -d -1 -p cbr -e 1000 -c 2 -a 0 -i 54 -k AGT
h -t 0.960000000 -s 0 -d -1 -p cbr -e 1000 -c 2 -a 0 -i 54 -k AGT
d -t 0.960000000 -s 0 -d -1 -p cbr -e 44 -c 2 -a 0 -i 48 -k RTR
+ -t 0.960000000 -s 0 -d -1 -p cbr -e 24 -c 2 -a 0 -i 55 -k AGT 
- -t 0.960000000 -s 0 -d -1 -p cbr -e 24 -c 2 -a 0 -i 55 -k AGT
h -t 0.960000000 -s 0 -d -1 -p cbr -e 24 -c 2 -a 0 -i 55 -k AGT
d -t 0.960000000 -s 0 -d -1 -p cbr -e 1020 -c 2 -a 0 -i 49 -k RTR
+ -t 1.000000000 -s 0 -d -1 -p cbr -e 1000 -c 2 -a 0 -i 56 -k AGT 
- -t 1.000000000 -s 0 -d -1 -p cbr -e 1000 -c 2 -a 0 -i 56 -k AGT
h -t 1.000000000 -s 0 -d -1 -p cbr -e 1000 -c 2 -a 0 -i 56 -k AGT
d -t 1.000000000 -s 0 -d -1 -p cbr -e 44 -c 2 -a 0 -i 50 -k RTR
+ -t 1.000000000 -s 0 -d -1 -p cbr -e 24 -c 2 -a 0 -i 57 -k AGT 
- -t 1.000000000 -s 0 -d -1 -p cbr -e 24 -c 2 -a 0 -i 57 -k AGT
h -t 1.000000000 -s 0 -d -1 -p cbr -e 24 -c 2 -a 0 -i 57 -k AGT
d -t 1.000000000 -s 0 -d -1 -p cbr -e 1020 -c 2 -a 0 -i 52 -k RTR
+ -t 1.040000000 -s 0 -d -1 -p cbr -e 1000 -c 2 -a 0 -i 58 -k AGT 
- -t 1.040000000 -s 0 -d -1 -p cbr -e 1000 -c 2 -a 0 -i 58 -k AGT
h -t 1.040000000 -s 0 -d -1 -p cbr -e 1000 -c 2 -a 0 -i 58 -k AGT
d -t 1.040000000 -s 0 -d -1 -p cbr -e 44 -c 2 -a 0 -i 53 -k RTR
+ -t 1.040000000 -s 0 -d -1 -p cbr -e 24 -c 2 -a 0 -i 59 -k AGT 
- -t 1.040000000 -s 0 -d -1 -p cbr -e 24 -c 2 -a 0 -i 59 -k AGT
h -t 1.040000000 -s 0 -d -1 -p cbr -e 24 -c 2 -a 0 -i 59 -k AGT
d -t 1.040000000 -s 0 -d -1 -p cbr -e 1020 -c 2 -a 0 -i 54 -k RTR
+ -t 1.080000000 -s 0 -d -1 -p cbr -e 1000 -c 2 -a 0 -i 60 -k AGT 
- -t 1.080000000 -s 0 -d -1 -p cbr -e 1000 -c 2 -a 0 -i 60 -k AGT
h -t 1.080000000 -s 0 -d -1 -p cbr -e 1000 -c 2 -a 0 -i 60 -k AGT
d -t 1.080000000 -s 0 -d -1 -p cbr -e 44 -c 2 -a 0 -i 55 -k RTR
+ -t 1.080000000 -s 0 -d -1 -p cbr -e 24 -c 2 -a 0 -i 61 -k AGT 
- -t 1.080000000 -s 0 -d -1 -p cbr -e 24 -c 2 -a 0 -i 61 -k AGT
h -t 1.080000000 -s 0 -d -1 -p cbr -e 24 -c 2 -a 0 -i 61 -k AGT
d -t 1.080000000 -s 0 -d -1 -p cbr -e 1020 -c 2 -a 0 -i 56 -k RTR
+ -t 1.120000000 -s 0 -d -1 -p cbr -e 1000 -c 2 -a 0 -i 63 -k AGT 
- -t 1.120000000 -s 0 -d -1 -p cbr -e 1000 -c 2 -a 0 -i 63 -k AGT
h -t 1.120000000 -s 0 -d -1 -p cbr -e 1000 -c 2 -a 0 -i 63 -k AGT
d -t 1.120000000 -s 0 -d -1 -p cbr -e 44 -c 2 -a 0 -i 57 -k RTR
+ -t 1.120000000 -s 0 -d -1 -p cbr -e 24 -c 2 -a 0 -i 64 -k AGT 
- -t 1.120000000 -s 0 -d -1 -p cbr -e 24 -c 2 -a 0 -i 64 -k AGT
h -t 1.120000000 -s 0 -d -1 -p cbr -e 24 -c 2 -a 0 -i 64 -k AGT
d -t 1.120000000 -s 0 -d -1 -p cbr -e 1020 -c 2 -a 0 -i 58 -k RTR
+ -t 1.120810887 -s 1 -d -1 -p message -e 32 -c 2 -a 0 -i 62 -k RTR 
- -t 1.120810887 -s 1 -d -1 -p message -e 32 -c 2 -a 0 -i 62 -k RTR
h -t 1.120810887 -s 1 -d -1 -p message -e 32 -c 2 -a 0 -i 62 -k RTR
+ -t 1.121165887 -s 1 -d -1 -p message -e 90 -c 2 -a 0 -i 62 -k MAC 
- -t 1.121165887 -s 1 -d -1 -p message -e 90 -c 2 -a 0 -i 62 -k MAC
h -t 1.121165887 -s 1 -d -1 -p message -e 90 -c 2 -a 0 -i 62 -k MAC
r -t 1.121886381 -s 2 -d -1 -p message -e 32 -c 2 -a 0 -i 62 -k MAC
r -t 1.121886384 -s 8 -d -1 -p message -e 32 -c 2 -a 0 -i 62 -k MAC
r -t 1.121886409 -s 0 -d -1 -p message -e 32 -c 2 -a 0 -i 62 -k MAC
r -t 1.121886589 -s 4 -d -1 -p message -e 32 -c 2 -a 0 -i 62 -k MAC
r -t 1.121911381 -s 2 -d -1 -p message -e 32 -c 2 -a 0 -i 62 -k RTR
r -t 1.121911384 -s 8 -d -1 -p message -e 32 -c 2 -a 0 -i 62 -k RTR
r -t 1.121911409 -s 0 -d -1 -p message -e 32 -c 2 -a 0 -i 62 -k RTR
r -t 1.121911589 -s 4 -d -1 -p message -e 32 -c 2 -a 0 -i 62 -k RTR
+ -t 1.160000000 -s 0 -d -1 -p cbr -e 1000 -c 2 -a 0 -i 65 -k AGT 
- -t 1.160000000 -s 0 -d -1 -p cbr -e 1000 -c 2 -a 0 -i 65 -k AGT
h -t 1.160000000 -s 0 -d -1 -p cbr -e 1000 -c 2 -a 0 -i 65 -k AGT
d -t 1.160000000 -s 0 -d -1 -p cbr -e 44 -c 2 -a 0 -i 59 -k RTR
+ -t 1.160000000 -s 0 -d -1 -p cbr -e 24 -c 2 -a 0 -i 66 -k AGT 
- -t 1.160000000 -s 0 -d -1 -p cbr -e 24 -c 2 -a 0 -i 66 -k AGT
h -t 1.160000000 -s 0 -d -1 -p cbr -e 24 -c 2 -a 0 -i 66 -k AGT
d -t 1.160000000 -s 0 -d -1 -p cbr -e 1020 -c 2 -a 0 -i 60 -k RTR
+ -t 1.200000000 -s 0 -d -1 -p cbr -e 1000 -c 2 -a 0 -i 67 -k AGT 
- -t 1.200000000 -s 0 -d -1 -p cbr -e 1000 -c 2 -a 0 -i 67 -k AGT
h -t 1.200000000 -s 0 -d -1 -p cbr -e 1000 -c 2 -a 0 -i 67 -k AGT
d -t 1.200000000 -s 0 -d -1 -p cbr -e 44 -c 2 -a 0 -i 61 -k RTR
+ -t 1.200000000 -s 0 -d -1 -p cbr -e 24 -c 2 -a 0 -i 68 -k AGT 
- -t 1.200000000 -s 0 -d -1 -p cbr -e 24 -c 2 -a 0 -i 68 -k AGT
h -t 1.200000000 -s 0 -d -1 -p cbr -e 24 -c 2 -a 0 -i 68 -k AGT
d -t 1.200000000 -s 0 -d -1 -p cbr -e 1020 -c 2 -a 0 -i 63 -k RTR
+ -t 1.240000000 -s 0 -d -1 -p cbr -e 1000 -c 2 -a 0 -i 69 -k AGT 
- -t 1.240000000 -s 0 -d -1 -p cbr -e 1000 -c 2 -a 0 -i 69 -k AGT
h -t 1.240000000 -s 0 -d -1 -p cbr -e 1000 -c 2 -a 0 -i 69 -k AGT
d -t 1.240000000 -s 0 -d -1 -p cbr -e 44 -c 2 -a 0 -i 64 -k RTR
+ -t 1.240000000 -s 0 -d -1 -p cbr -e 24 -c 2 -a 0 -i 70 -k AGT 
- -t 1.240000000 -s 0 -d -1 -p cbr -e 24 -c 2 -a 0 -i 70 -k AGT
h -t 1.240000000 -s 0 -d -1 -p cbr -e 24 -c 2 -a 0 -i 70 -k AGT
d -t 1.240000000 -s 0 -d -1 -p cbr -e 1020 -c 2 -a 0 -i 65 -k RTR
+ -t 1.279603939 -s 9 -d -1 -p message -e 32 -c 2 -a 0 -i 71 -k RTR 
- -t 1.279603939 -s 9 -d -1 -p message -e 32 -c 2 -a 0 -i 71 -k RTR
h -t 1.279603939 -s 9 -d -1 -p message -e 32 -c 2 -a 0 -i 71 -k RTR
+ -t 1.279898939 -s 9 -d -1 -p message -e 90 -c 2 -a 0 -i 71 -k MAC 
- -t 1.279898939 -s 9 -d -1 -p message -e 90 -c 2 -a 0 -i 71 -k MAC
h -t 1.279898939 -s 9 -d -1 -p message -e 90 -c 2 -a 0 -i 71 -k MAC
+ -t 1.280000000 -s 0 -d -1 -p cbr -e 1000 -c 2 -a 0 -i 72 -k AGT 
- -t 1.280000000 -s 0 -d -1 -p cbr -e 1000 -c 2 -a 0 -i 72 -k AGT
h -t 1.280000000 -s 0 -d -1 -p cbr -e 1000 -c 2 -a 0 -i 72 -k AGT
d -t 1.280000000 -s 0 -d -1 -p cbr -e 44 -c 2 -a 0 -i 66 -k RTR
+ -t 1.280000000 -s 0 -d -1 -p cbr -e 24 -c 2 -a 0 -i 73 -k AGT 
- -t 1.280000000 -s 0 -d -1 -p cbr -e 24 -c 2 -a 0 -i 73 -k AGT
h -t 1.280000000 -s 0 -d -1 -p cbr -e 24 -c 2 -a 0 -i 73 -k AGT
d -t 1.280000000 -s 0 -d -1 -p cbr -e 1020 -c 2 -a 0 -i 67 -k RTR
r -t 1.280619582 -s 5 -d -1 -p message -e 32 -c 2 -a 0 -i 71 -k MAC
r -t 1.280644582 -s 5 -d -1 -p message -e 32 -c 2 -a 0 -i 71 -k RTR
+ -t 1.320000000 -s 0 -d -1 -p cbr -e 1000 -c 2 -a 0 -i 74 -k AGT 
- -t 1.320000000 -s 0 -d -1 -p cbr -e 1000 -c 2 -a 0 -i 74 -k AGT
h -t 1.320000000 -s 0 -d -1 -p cbr -e 1000 -c 2 -a 0 -i 74 -k AGT
d -t 1.320000000 -s 0 -d -1 -p cbr -e 44 -c 2 -a 0 -i 68 -k RTR
+ -t 1.320000000 -s 0 -d -1 -p cbr -e 24 -c 2 -a 0 -i 75 -k AGT 
- -t 1.320000000 -s 0 -d -1 -p cbr -e 24 -c 2 -a 0 -i 75 -k AGT
h -t 1.320000000 -s 0 -d -1 -p cbr -e 24 -c 2 -a 0 -i 75 -k AGT
d -t 1.320000000 -s 0 -d -1 -p cbr -e 1020 -c 2 -a 0 -i 69 -k RTR
+ -t 1.360000000 -s 0 -d -1 -p cbr -e 1000 -c 2 -a 0 -i 76 -k AGT 
- -t 1.360000000 -s 0 -d -1 -p cbr -e 1000 -c 2 -a 0 -i 76 -k AGT
h -t 1.360000000 -s 0 -d -1 -p cbr -e 1000 -c 2 -a 0 -i 76 -k AGT
d -t 1.360000000 -s 0 -d -1 -p cbr -e 44 -c 2 -a 0 -i 70 -k RTR
+ -t 1.360000000 -s 0 -d -1 -p cbr -e 24 -c 2 -a 0 -i 77 -k AGT 
- -t 1.360000000 -s 0 -d -1 -p cbr -e 24 -c 2 -a 0 -i 77 -k AGT
h -t 1.360000000 -s 0 -d -1 -p cbr -e 24 -c 2 -a 0 -i 77 -k AGT
d -t 1.360000000 -s 0 -d -1 -p cbr -e 1020 -c 2 -a 0 -i 72 -k RTR
+ -t 1.400000000 -s 0 -d -1 -p cbr -e 1000 -c 2 -a 0 -i 78 -k AGT 
- -t 1.400000000 -s 0 -d -1 -p cbr -e 1000 -c 2 -a 0 -i 78 -k AGT
h -t 1.400000000 -s 0 -d -1 -p cbr -e 1000 -c 2 -a 0 -i 78 -k AGT
d -t 1.400000000 -s 0 -d -1 -p cbr -e 44 -c 2 -a 0 -i 73 -k RTR
+ -t 1.400000000 -s 0 -d -1 -p cbr -e 24 -c 2 -a 0 -i 79 -k AGT 
- -t 1.400000000 -s 0 -d -1 -p cbr -e 24 -c 2 -a 0 -i 79 -k AGT
h -t 1.400000000 -s 0 -d -1 -p cbr -e 24 -c 2 -a 0 -i 79 -k AGT
d -t 1.400000000 -s 0 -d -1 -p cbr -e 1020 -c 2 -a 0 -i 74 -k RTR
+ -t 1.440000000 -s 0 -d -1 -p cbr -e 1000 -c 2 -a 0 -i 80 -k AGT 
- -t 1.440000000 -s 0 -d -1 -p cbr -e 1000 -c 2 -a 0 -i 80 -k AGT
h -t 1.440000000 -s 0 -d -1 -p cbr -e 1000 -c 2 -a 0 -i 80 -k AGT
d -t 1.440000000 -s 0 -d -1 -p cbr -e 44 -c 2 -a 0 -i 75 -k RTR
+ -t 1.440000000 -s 0 -d -1 -p cbr -e 24 -c 2 -a 0 -i 81 -k AGT 
- -t 1.440000000 -s 0 -d -1 -p cbr -e 24 -c 2 -a 0 -i 81 -k AGT
h -t 1.440000000 -s 0 -d -1 -p cbr -e 24 -c 2 -a 0 -i 81 -k AGT
d -t 1.440000000 -s 0 -d -1 -p cbr -e 1020 -c 2 -a 0 -i 76 -k RTR
+ -t 1.480000000 -s 0 -d -1 -p cbr -e 1000 -c 2 -a 0 -i 82 -k AGT 
- -t 1.480000000 -s 0 -d -1 -p cbr -e 1000 -c 2 -a 0 -i 82 -k AGT
h -t 1.480000000 -s 0 -d -1 -p cbr -e 1000 -c 2 -a 0 -i 82 -k AGT
d -t 1.480000000 -s 0 -d -1 -p cbr -e 44 -c 2 -a 0 -i 77 -k RTR
+ -t 1.480000000 -s 0 -d -1 -p cbr -e 24 -c 2 -a 0 -i 83 -k AGT 
- -t 1.480000000 -s 0 -d -1 -p cbr -e 24 -c 2 -a 0 -i 83 -k AGT
h -t 1.480000000 -s 0 -d -1 -p cbr -e 24 -c 2 -a 0 -i 83 -k AGT
d -t 1.480000000 -s 0 -d -1 -p cbr -e 1020 -c 2 -a 0 -i 78 -k RTR
+ -t 1.520000000 -s 0 -d -1 -p cbr -e 1000 -c 2 -a 0 -i 84 -k AGT 
- -t 1.520000000 -s 0 -d -1 -p cbr -e 1000 -c 2 -a 0 -i 84 -k AGT
h -t 1.520000000 -s 0 -d -1 -p cbr -e 1000 -c 2 -a 0 -i 84 -k AGT
d -t 1.520000000 -s 0 -d -1 -p cbr -e 44 -c 2 -a 0 -i 79 -k RTR
+ -t 1.520000000 -s 0 -d -1 -p cbr -e 24 -c 2 -a 0 -i 85 -k AGT 
- -t 1.520000000 -s 0 -d -1 -p cbr -e 24 -c 2 -a 0 -i 85 -k AGT
h -t 1.520000000 -s 0 -d -1 -p cbr -e 24 -c 2 -a 0 -i 85 -k AGT
d -t 1.520000000 -s 0 -d -1 -p cbr -e 1020 -c 2 -a 0 -i 80 -k RTR
+ -t 1.560000000 -s 0 -d -1 -p cbr -e 1000 -c 2 -a 0 -i 86 -k AGT 
- -t 1.560000000 -s 0 -d -1 -p cbr -e 1000 -c 2 -a 0 -i 86 -k AGT
h -t 1.560000000 -s 0 -d -1 -p cbr -e 1000 -c 2 -a 0 -i 86 -k AGT
d -t 1.560000000 -s 0 -d -1 -p cbr -e 44 -c 2 -a 0 -i 81 -k RTR
+ -t 1.560000000 -s 0 -d -1 -p cbr -e 24 -c 2 -a 0 -i 87 -k AGT 
- -t 1.560000000 -s 0 -d -1 -p cbr -e 24 -c 2 -a 0 -i 87 -k AGT
h -t 1.560000000 -s 0 -d -1 -p cbr -e 24 -c 2 -a 0 -i 87 -k AGT
d -t 1.560000000 -s 0 -d -1 -p cbr -e 1020 -c 2 -a 0 -i 82 -k RTR
+ -t 1.599431220 -s 5 -d -1 -p message -e 32 -c 2 -a 0 -i 88 -k RTR 
- -t 1.599431220 -s 5 -d -1 -p message -e 32 -c 2 -a 0 -i 88 -k RTR
h -t 1.599431220 -s 5 -d -1 -p message -e 32 -c 2 -a 0 -i 88 -k RTR
+ -t 1.599626220 -s 5 -d -1 -p message -e 90 -c 2 -a 0 -i 88 -k MAC 
- -t 1.599626220 -s 5 -d -1 -p message -e 90 -c 2 -a 0 -i 88 -k MAC
h -t 1.599626220 -s 5 -d -1 -p message -e 90 -c 2 -a 0 -i 88 -k MAC
+ -t 1.600000000 -s 0 -d -1 -p cbr -e 1000 -c 2 -a 0 -i 89 -k AGT 
- -t 1.600000000 -s 0 -d -1 -p cbr -e 1000 -c 2 -a 0 -i 89 -k AGT
h -t 1.600000000 -s 0 -d -1 -p cbr -e 1000 -c 2 -a 0 -i 89 -k AGT
d -t 1.600000000 -s 0 -d -1 -p cbr -e 44 -c 2 -a 0 -i 83 -k RTR
+ -t 1.600000000 -s 0 -d -1 -p cbr -e 24 -c 2 -a 0 -i 90 -k AGT 
- -t 1.600000000 -s 0 -d -1 -p cbr -e 24 -c 2 -a 0 -i 90 -k AGT
h -t 1.600000000 -s 0 -d -1 -p cbr -e 24 -c 2 -a 0 -i 90 -k AGT
d -t 1.600000000 -s 0 -d -1 -p cbr -e 1020 -c 2 -a 0 -i 84 -k RTR
r -t 1.600346783 -s 6 -d -1 -p message -e 32 -c 2 -a 0 -i 88 -k MAC
r -t 1.600346844 -s 4 -d -1 -p message -e 32 -c 2 -a 0 -i 88 -k MAC
r -t 1.600346862 -s 9 -d -1 -p message -e 32 -c 2 -a 0 -i 88 -k MAC
r -t 1.600371783 -s 6 -d -1 -p message -e 32 -c 2 -a 0 -i 88 -k RTR
r -t 1.600371844 -s 4 -d -1 -p message -e 32 -c 2 -a 0 -i 88 -k RTR
r -t 1.600371862 -s 9 -d -1 -p message -e 32 -c 2 -a 0 -i 88 -k RTR
+ -t 1.636308730 -s 7 -d -1 -p message -e 32 -c 2 -a 0 -i 91 -k RTR 
- -t 1.636308730 -s 7 -d -1 -p message -e 32 -c 2 -a 0 -i 91 -k RTR
h -t 1.636308730 -s 7 -d -1 -p message -e 32 -c 2 -a 0 -i 91 -k RTR
+ -t 1.636563730 -s 7 -d -1 -p message -e 90 -c 2 -a 0 -i 91 -k MAC 
- -t 1.636563730 -s 7 -d -1 -p message -e 90 -c 2 -a 0 -i 91 -k MAC
h -t 1.636563730 -s 7 -d -1 -p message -e 90 -c 2 -a 0 -i 91 -k MAC
r -t 1.637284278 -s 8 -d -1 -p message -e 32 -c 2 -a 0 -i 91 -k MAC
r -t 1.637309278 -s 8 -d -1 -p message -e 32 -c 2 -a 0 -i 91 -k RTR
+ -t 1.640000000 -s 0 -d -1 -p cbr -e 1000 -c 2 -a 0 -i 92 -k AGT 
- -t 1.640000000 -s 0 -d -1 -p cbr -e 1000 -c 2 -a 0 -i 92 -k AGT
h -t 1.640000000 -s 0 -d -1 -p cbr -e 1000 -c 2 -a 0 -i 92 -k AGT
d -t 1.640000000 -s 0 -d -1 -p cbr -e 44 -c 2 -a 0 -i 85 -k RTR
+ -t 1.640000000 -s 0 -d -1 -p cbr -e 24 -c 2 -a 0 -i 93 -k AGT 
- -t 1.640000000 -s 0 -d -1 -p cbr -e 24 -c 2 -a 0 -i 93 -k AGT
h -t 1.640000000 -s 0 -d -1 -p cbr -e 24 -c 2 -a 0 -i 93 -k AGT
d -t 1.640000000 -s 0 -d -1 -p cbr -e 1020 -c 2 -a 0 -i 86 -k RTR