+ 2 /NodeList/0/DeviceList/1/$ns3::PointToPointNetDevice/TxQueue/Enqueue ns3::PppHeader (Point-to-Point Protocol: IP (0x0021)) ns3::Ipv4Header (tos 0x0 DSCP Default ECN Not-ECT ttl 64 id 0 protocol 17 offset (bytes) 0 flags [none] length: 1052 10.0.0.1 > 10.0.6.2) ns3::UdpHeader (length: 1032 49153 > 9) Payload (size=1024)
- 2 /NodeList/0/DeviceList/1/$ns3::PointToPointNetDevice/TxQueue/Dequeue ns3::PppHeader (Point-to-Point Protocol: IP (0x0021)) ns3::Ipv4Header (tos 0x0 DSCP Default ECN Not-ECT ttl 64 id 0 protocol 17 offset (bytes) 0 flags [none] length: 1052 10.0.0.1 > 10.0.6.2) ns3::UdpHeader (length: 1032 49153 > 9) Payload (size=1024)
r 2.00369 /NodeList/2/DeviceList/1/$ns3::PointToPointNetDevice/MacRx ns3::PppHeader (Point-to-Point Protocol: IP (0x0021)) ns3::Ipv4Header (tos 0x0 DSCP Default ECN Not-ECT ttl 64 id 0 protocol 17 offset (bytes) 0 flags [none] length: 1052 10.0.0.1 > 10.0.6.2) ns3::UdpHeader (length: 1032 49153 > 9) Payload (size=1024)
+ 2.00369 /NodeList/2/DeviceList/3/$ns3::PointToPointNetDevice/TxQueue/Enqueue ns3::PppHeader (Point-to-Point Protocol: IP (0x0021)) ns3::Ipv4Header (tos 0x0 DSCP Default ECN Not-ECT ttl 63 id 0 protocol 17 offset (bytes) 0 flags [none] length: 1052 10.0.0.1 > 10.0.6.2) ns3::UdpHeader (length: 1032 49153 > 9) Payload (size=1024)
- 2.00369 /NodeList/2/DeviceList/3/$ns3::PointToPointNetDevice/TxQueue/Dequeue ns3::PppHeader (Point-to-Point Protocol: IP (0x0021)) ns3::Ipv4Header (tos 0x0 DSCP Default ECN Not-ECT ttl 63 id 0 protocol 17 offset (bytes) 0 flags [none] length: 1052 10.0.0.1 > 10.0.6.2) ns3::UdpHeader (length: 1032 49153 > 9) Payload (size=1024)
r 2.00737 /NodeList/4/DeviceList/1/$ns3::PointToPointNetDevice/MacRx ns3::PppHeader (Point-to-Point Protocol: IP (0x0021)) ns3::Ipv4Header (tos 0x0 DSCP Default ECN Not-ECT ttl 63 id 0 protocol 17 offset (bytes) 0 flags [none] length: 1052 10.0.0.1 > 10.0.6.2) ns3::UdpHeader (length: 1032 49153 > 9) Payload (size=1024)
+ 2.00737 /NodeList/4/DeviceList/3/$ns3::PointToPointNetDevice/TxQueue/Enqueue ns3::PppHeader (Point-to-Point Protocol: IP (0x0021)) ns3::Ipv4Header (tos 0x0 DSCP Default ECN Not-ECT ttl 62 id 0 protocol 17 offset (bytes) 0 flags [none] length: 1052 10.0.0.1 > 10.0.6.2) ns3::UdpHeader (length: 1032 49153 > 9) Payload (size=1024)
- 2.00737 /NodeList/4/DeviceList/3/$ns3::PointToPointNetDevice/TxQueue/Dequeue ns3::PppHeader (Point-to-Point Protocol: IP (0x0021)) ns3::Ipv4Header (tos 0x0 DSCP Default ECN Not-ECT ttl 62 id 0 protocol 17 offset (bytes) 0 flags [none] length: 1052 10.0.0.1 > 10.0.6.2) ns3::UdpHeader (length: 1032 49153 > 9) Payload (size=1024)
r 2.01106 /NodeList/6/DeviceList/2/$ns3::PointToPointNetDevice/MacRx ns3::PppHeader (Point-to-Point Protocol: IP (0x0021)) ns3::Ipv4Header (tos 0x0 DSCP Default ECN Not-ECT ttl 62 id 0 protocol 17 offset (bytes) 0 flags [none] length: 1052 10.0.0.1 > 10.0.6.2) ns3::UdpHeader (length: 1032 49153 > 9) Payload (size=1024)
+ 2.01106 /NodeList/6/DeviceList/4/$ns3::PointToPointNetDevice/TxQueue/Enqueue ns3::PppHeader (Point-to-Point Protocol: IP (0x0021)) ns3::Ipv4Header (tos 0x0 DSCP Default ECN Not-ECT ttl 61 id 0 protocol 17 offset (bytes) 0 flags [none] length: 1052 10.0.0.1 > 10.0.6.2) ns3::UdpHeader (length: 1032 49153 > 9) Payload (size=1024)
- 2.01106 /NodeList/6/DeviceList/4/$ns3::PointToPointNetDevice/TxQueue/Dequeue ns3::PppHeader (Point-to-Point Protocol: IP (0x0021)) ns3::Ipv4Header (tos 0x0 DSCP Default ECN Not-ECT ttl 61 id 0 protocol 17 offset (bytes) 0 flags [none] length: 1052 10.0.0.1 > 10.0.6.2) ns3::UdpHeader (length: 1032 49153 > 9) Payload (size=1024)
r 2.01475 /NodeList/7/DeviceList/1/$ns3::PointToPointNetDevice/MacRx ns3::PppHeader (Point-to-Point Protocol: IP (0x0021)) ns3::Ipv4Header (tos 0x0 DSCP Default ECN Not-ECT ttl 61 id 0 protocol 17 offset (bytes) 0 flags [none] length: 1052 10.0.0.1 > 10.0.6.2) ns3::UdpHeader (length: 1032 49153 > 9) Payload (size=1024)
+ 2.01475 /NodeList/7/DeviceList/2/$ns3::PointToPointNetDevice/TxQueue/Enqueue ns3::PppHeader (Point-to-Point Protocol: IP (0x0021)) ns3::Ipv4Header (tos 0x0 DSCP Default ECN Not-ECT ttl 60 id 0 protocol 17 offset (bytes) 0 flags [none] length: 1052 10.0.0.1 > 10.0.6.2) ns3::UdpHeader (length: 1032 49153 > 9) Payload (size=1024)
- 2.01475 /NodeList/7/DeviceList/2/$ns3::PointToPointNetDevice/TxQueue/Dequeue ns3::PppHeader (Point-to-Point Protocol: IP (0x0021)) ns3::Ipv4Header (tos 0x0 DSCP Default ECN Not-ECT ttl 60 id 0 protocol 17 offset (bytes) 0 flags [none] length: 1052 10.0.0.1 > 10.0.6.2) ns3::UdpHeader (length: 1032 49153 > 9) Payload (size=1024)
r 2.01843 /NodeList/5/DeviceList/4/$ns3::PointToPointNetDevice/MacRx ns3::PppHeader (Point-to-Point Protocol: IP (0x0021)) ns3::Ipv4Header (tos 0x0 DSCP Default ECN Not-ECT ttl 60 id 0 protocol 17 offset (bytes) 0 flags [none] length: 1052 10.0.0.1 > 10.0.6.2) ns3::UdpHeader (length: 1032 49153 > 9) Payload (size=1024)
+ 2.01843 /NodeList/5/DeviceList/2/$ns3::PointToPointNetDevice/TxQueue/Enqueue ns3::PppHeader (Point-to-Point Protocol: IP (0x0021)) ns3::Ipv4Header (tos 0x0 DSCP Default ECN Not-ECT ttl 59 id 0 protocol 17 offset (bytes) 0 flags [none] length: 1052 10.0.0.1 > 10.0.6.2) ns3::UdpHeader (length: 1032 49153 > 9) Payload (size=1024)
- 2.01843 /NodeList/5/DeviceList/2/$ns3::PointToPointNetDevice/TxQueue/Dequeue ns3::PppHeader (Point-to-Point Protocol: IP (0x0021)) ns3::Ipv4Header (tos 0x0 DSCP Default ECN Not-ECT ttl 59 id 0 protocol 17 offset (bytes) 0 flags [none] length: 1052 10.0.0.1 > 10.0.6.2) ns3::UdpHeader (length: 1032 49153 > 9) Payload (size=1024)
r 2.02212 /NodeList/1/DeviceList/1/$ns3::PointToPointNetDevice/MacRx ns3::PppHeader (Point-to-Point Protocol: IP (0x0021)) ns3::Ipv4Header (tos 0x0 DSCP Default ECN Not-ECT ttl 59 id 0 protocol 17 offset (bytes) 0 flags [none] length: 1052 10.0.0.1 > 10.0.6.2) ns3::UdpHeader (length: 1032 49153 > 9) Payload (size=1024)
+ 2.02212 /NodeList/1/DeviceList/1/$ns3::PointToPointNetDevice/TxQueue/Enqueue ns3::PppHeader (Point-to-Point Protocol: IP (0x0021)) ns3::Ipv4Header (tos 0x0 DSCP Default ECN Not-ECT ttl 64 id 0 protocol 17 offset (bytes) 0 flags [none] length: 1052 10.0.6.2 > 10.0.0.1) ns3::UdpHeader (length: 1032 9 > 49153) Payload (size=1024)
- 2.02212 /NodeList/1/DeviceList/1/$ns3::PointToPointNetDevice/TxQueue/Dequeue ns3::PppHeader (Point-to-Point Protocol: IP (0x0021)) ns3::Ipv4Header (tos 0x0 DSCP Default ECN Not-ECT ttl 64 id 0 protocol 17 offset (bytes) 0 flags [none] length: 1052 10.0.6.2 > 10.0.0.1) ns3::UdpHeader (length: 1032 9 > 49153) Payload (size=1024)
r 2.0258 /NodeList/5/DeviceList/2/$ns3::PointToPointNetDevice/MacRx ns3::PppHeader (Point-to-Point Protocol: IP (0x0021)) ns3::Ipv4Header (tos 0x0 DSCP Default ECN Not-ECT ttl 64 id 0 protocol 17 offset (bytes) 0 flags [none] length: 1052 10.0.6.2 > 10.0.0.1) ns3::UdpHeader (length: 1032 9 > 49153) Payload (size=1024)
+ 2.0258 /NodeList/5/DeviceList/4/$ns3::PointToPointNetDevice/TxQueue/Enqueue ns3::PppHeader (Point-to-Point Protocol: IP (0x0021)) ns3::Ipv4Header (tos 0x0 DSCP Default ECN Not-ECT ttl 63 id 0 protocol 17 offset (bytes) 0 flags [none] length: 1052 10.0.6.2 > 10.0.0.1) ns3::UdpHeader (length: 1032 9 > 49153) Payload (size=1024)
- 2.0258 /NodeList/5/DeviceList/4/$ns3::PointToPointNetDevice/TxQueue/Dequeue ns3::PppHeader (Point-to-Point Protocol: IP (0x0021)) ns3::Ipv4Header (tos 0x0 DSCP Default ECN Not-ECT ttl 63 id 0 protocol 17 offset (bytes) 0 flags [none] length: 1052 10.0.6.2 > 10.0.0.1) ns3::UdpHeader (length: 1032 9 > 49153) Payload (size=1024)
r 2.02949 /NodeList/7/DeviceList/2/$ns3::PointToPointNetDevice/MacRx ns3::PppHeader (Point-to-Point Protocol: IP (0x0021)) ns3::Ipv4Header (tos 0x0 DSCP Default ECN Not-ECT ttl 63 id 0 protocol 17 offset (bytes) 0 flags [none] length: 1052 10.0.6.2 > 10.0.0.1) ns3::UdpHeader (length: 1032 9 > 49153) Payload (size=1024)
+ 2.02949 /NodeList/7/DeviceList/1/$ns3::PointToPointNetDevice/TxQueue/Enqueue ns3::PppHeader (Point-to-Point Protocol: IP (0x0021)) ns3::Ipv4Header (tos 0x0 DSCP Default ECN Not-ECT ttl 62 id 0 protocol 17 offset (bytes) 0 flags [none] length: 1052 10.0.6.2 > 10.0.0.1) ns3::UdpHeader (length: 1032 9 > 49153) Payload (size=1024)
- 2.02949 /NodeList/7/DeviceList/1/$ns3::PointToPointNetDevice/TxQueue/Dequeue ns3::PppHeader (Point-to-Point Protocol: IP (0x0021)) ns3::Ipv4Header (tos 0x0 DSCP Default ECN Not-ECT ttl 62 id 0 protocol 17 offset (bytes) 0 flags [none] length: 1052 10.0.6.2 > 10.0.0.1) ns3::UdpHeader (length: 1032 9 > 49153) Payload (size=1024)
r 2.03318 /NodeList/6/DeviceList/4/$ns3::PointToPointNetDevice/MacRx ns3::PppHeader (Point-to-Point Protocol: IP (0x0021)) ns3::Ipv4Header (tos 0x0 DSCP Default ECN Not-ECT ttl 62 id 0 protocol 17 offset (bytes) 0 flags [none] length: 1052 10.0.6.2 > 10.0.0.1) ns3::UdpHeader (length: 1032 9 > 49153) Payload (size=1024)
+ 2.03318 /NodeList/6/DeviceList/2/$ns3::PointToPointNetDevice/TxQueue/Enqueue ns3::PppHeader (Point-to-Point Protocol: IP (0x0021)) ns3::Ipv4Header (tos 0x0 DSCP Default ECN Not-ECT ttl 61 id 0 protocol 17 offset (bytes) 0 flags [none] length: 1052 10.0.6.2 > 10.0.0.1) ns3::UdpHeader (length: 1032 9 > 49153) Payload (size=1024)
- 2.03318 /NodeList/6/DeviceList/2/$ns3::PointToPointNetDevice/TxQueue/Dequeue ns3::PppHeader (Point-to-Point Protocol: IP (0x0021)) ns3::Ipv4Header (tos 0x0 DSCP Default ECN Not-ECT ttl 61 id 0 protocol 17 offset (bytes) 0 flags [none] length: 1052 10.0.6.2 > 10.0.0.1) ns3::UdpHeader (length: 1032 9 > 49153) Payload (size=1024)
r 2.03686 /NodeList/4/DeviceList/3/$ns3::PointToPointNetDevice/MacRx ns3::PppHeader (Point-to-Point Protocol: IP (0x0021)) ns3::Ipv4Header (tos 0x0 DSCP Default ECN Not-ECT ttl 61 id 0 protocol 17 offset (bytes) 0 flags [none] length: 1052 10.0.6.2 > 10.0.0.1) ns3::UdpHeader (length: 1032 9 > 49153) Payload (size=1024)
+ 2.03686 /NodeList/4/DeviceList/1/$ns3::PointToPointNetDevice/TxQueue/Enqueue ns3::PppHeader (Point-to-Point Protocol: IP (0x0021)) ns3::Ipv4Header (tos 0x0 DSCP Default ECN Not-ECT ttl 60 id 0 protocol 17 offset (bytes) 0 flags [none] length: 1052 10.0.6.2 > 10.0.0.1) ns3::UdpHeader (length: 1032 9 > 49153) Payload (size=1024)
- 2.03686 /NodeList/4/DeviceList/1/$ns3::PointToPointNetDevice/TxQueue/Dequeue ns3::PppHeader (Point-to-Point Protocol: IP (0x0021)) ns3::Ipv4Header (tos 0x0 DSCP Default ECN Not-ECT ttl 60 id 0 protocol 17 offset (bytes) 0 flags [none] length: 1052 10.0.6.2 > 10.0.0.1) ns3::UdpHeader (length: 1032 9 > 49153) Payload (size=1024)
r 2.04055 /NodeList/2/DeviceList/3/$ns3::PointToPointNetDevice/MacRx ns3::PppHeader (Point-to-Point Protocol: IP (0x0021)) ns3::Ipv4Header (tos 0x0 DSCP Default ECN Not-ECT ttl 60 id 0 protocol 17 offset (bytes) 0 flags [none] length: 1052 10.0.6.2 > 10.0.0.1) ns3::UdpHeader (length: 1032 9 > 49153) Payload (size=1024)
+ 2.04055 /NodeList/2/DeviceList/1/$ns3::PointToPointNetDevice/TxQueue/Enqueue ns3::PppHeader (Point-to-Point Protocol: IP (0x0021)) ns3::Ipv4Header (tos 0x0 DSCP Default ECN Not-ECT ttl 59 id 0 protocol 17 offset (bytes) 0 flags [none] length: 1052 10.0.6.2 > 10.0.0.1) ns3::UdpHeader (length: 1032 9 > 49153) Payload (size=1024)
- 2.04055 /NodeList/2/DeviceList/1/$ns3::PointToPointNetDevice/TxQueue/Dequeue ns3::PppHeader (Point-to-Point Protocol: IP (0x0021)) ns3::Ipv4Header (tos 0x0 DSCP Default ECN Not-ECT ttl 59 id 0 protocol 17 offset (bytes) 0 flags [none] length: 1052 10.0.6.2 > 10.0.0.1) ns3::UdpHeader (length: 1032 9 > 49153) Payload (size=1024)
r 2.04424 /NodeList/0/DeviceList/1/$ns3::PointToPointNetDevice/MacRx ns3::PppHeader (Point-to-Point Protocol: IP (0x0021)) ns3::Ipv4Header (tos 0x0 DSCP Default ECN Not-ECT ttl 59 id 0 protocol 17 offset (bytes) 0 flags [none] length: 1052 10.0.6.2 > 10.0.0.1) ns3::UdpHeader (length: 1032 9 > 49153) Payload (size=1024)
+ 6 /NodeList/0/DeviceList/1/$ns3::PointToPointNetDevice/TxQueue/Enqueue ns3::PppHeader (Point-to-Point Protocol: IP (0x0021)) ns3::Ipv4Header (tos 0x0 DSCP Default ECN Not-ECT ttl 64 id 1 protocol 17 offset (bytes) 0 flags [none] length: 1052 10.0.0.1 > 10.0.6.2) ns3::UdpHeader (length: 1032 49153 > 9) Payload (size=1024)
- 6 /NodeList/0/DeviceList/1/$ns3::PointToPointNetDevice/TxQueue/Dequeue ns3::PppHeader (Point-to-Point Protocol: IP (0x0021)) ns3::Ipv4Header (tos 0x0 DSCP Default ECN Not-ECT ttl 64 id 1 protocol 17 offset (bytes) 0 flags [none] length: 1052 10.0.0.1 > 10.0.6.2) ns3::UdpHeader (length: 1032 49153 > 9) Payload (size=1024)
r 6.00369 /NodeList/2/DeviceList/1/$ns3::PointToPointNetDevice/MacRx ns3::PppHeader (Point-to-Point Protocol: IP (0x0021)) ns3::Ipv4Header (tos 0x0 DSCP Default ECN Not-ECT ttl 64 id 1 protocol 17 offset (bytes) 0 flags [none] length: 1052 10.0.0.1 > 10.0.6.2) ns3::UdpHeader (length: 1032 49153 > 9) Payload (size=1024)
+ 6.00369 /NodeList/2/DeviceList/3/$ns3::PointToPointNetDevice/TxQueue/Enqueue ns3::PppHeader (Point-to-Point Protocol: IP (0x0021)) ns3::Ipv4Header (tos 0x0 DSCP Default ECN Not-ECT ttl 63 id 1 protocol 17 offset (bytes) 0 flags [none] length: 1052 10.0.0.1 > 10.0.6.2) ns3::UdpHeader (length: 1032 49153 > 9) Payload (size=1024)
- 6.00369 /NodeList/2/DeviceList/3/$ns3::PointToPointNetDevice/TxQueue/Dequeue ns3::PppHeader (Point-to-Point Protocol: IP (0x0021)) ns3::Ipv4Header (tos 0x0 DSCP Default ECN Not-ECT ttl 63 id 1 protocol 17 offset (bytes) 0 flags [none] length: 1052 10.0.0.1 > 10.0.6.2) ns3::UdpHeader (length: 1032 49153 > 9) Payload (size=1024)
r 6.00737 /NodeList/4/DeviceList/1/$ns3::PointToPointNetDevice/MacRx ns3::PppHeader (Point-to-Point Protocol: IP (0x0021)) ns3::Ipv4Header (tos 0x0 DSCP Default ECN Not-ECT ttl 63 id 1 protocol 17 offset (bytes) 0 flags [none] length: 1052 10.0.0.1 > 10.0.6.2) ns3::UdpHeader (length: 1032 49153 > 9) Payload (size=1024)
+ 6.00737 /NodeList/4/DeviceList/3/$ns3::PointToPointNetDevice/TxQueue/Enqueue ns3::PppHeader (Point-to-Point Protocol: IP (0x0021)) ns3::Ipv4Header (tos 0x0 DSCP Default ECN Not-ECT ttl 62 id 1 protocol 17 offset (bytes) 0 flags [none] length: 1052 10.0.0.1 > 10.0.6.2) ns3::UdpHeader (length: 1032 49153 > 9) Payload (size=1024)
- 6.00737 /NodeList/4/DeviceList/3/$ns3::PointToPointNetDevice/TxQueue/Dequeue ns3::PppHeader (Point-to-Point Protocol: IP (0x0021)) ns3::Ipv4Header (tos 0x0 DSCP Default ECN Not-ECT ttl 62 id 1 protocol 17 offset (bytes) 0 flags [none] length: 1052 10.0.0.1 > 10.0.6.2) ns3::UdpHeader (length: 1032 49153 > 9) Payload (size=1024)
r 6.01106 /NodeList/6/DeviceList/2/$ns3::PointToPointNetDevice/MacRx ns3::PppHeader (Point-to-Point Protocol: IP (0x0021)) ns3::Ipv4Header (tos 0x0 DSCP Default ECN Not-ECT ttl 62 id 1 protocol 17 offset (bytes) 0 flags [none] length: 1052 10.0.0.1 > 10.0.6.2) ns3::UdpHeader (length: 1032 49153 > 9) Payload (size=1024)
+ 6.01106 /NodeList/6/DeviceList/4/$ns3::PointToPointNetDevice/TxQueue/Enqueue ns3::PppHeader (Point-to-Point Protocol: IP (0x0021)) ns3::Ipv4Header (tos 0x0 DSCP Default ECN Not-ECT ttl 61 id 1 protocol 17 offset (bytes) 0 flags [none] length: 1052 10.0.0.1 > 10.0.6.2) ns3::UdpHeader (length: 1032 49153 > 9) Payload (size=1024)
- 6.01106 /NodeList/6/DeviceList/4/$ns3::PointToPointNetDevice/TxQueue/Dequeue ns3::PppHeader (Point-to-Point Protocol: IP (0x0021)) ns3::Ipv4Header (tos 0x0 DSCP Default ECN Not-ECT ttl 61 id 1 protocol 17 offset (bytes) 0 flags [none] length: 1052 10.0.0.1 > 10.0.6.2) ns3::UdpHeader (length: 1032 49153 > 9) Payload (size=1024)
r 6.01475 /NodeList/7/DeviceList/1/$ns3::PointToPointNetDevice/MacRx ns3::PppHeader (Point-to-Point Protocol: IP (0x0021)) ns3::Ipv4Header (tos 0x0 DSCP Default ECN Not-ECT ttl 61 id 1 protocol 17 offset (bytes) 0 flags [none] length: 1052 10.0.0.1 > 10.0.6.2) ns3::UdpHeader (length: 1032 49153 > 9) Payload (size=1024)
+ 6.01475 /NodeList/7/DeviceList/2/$ns3::PointToPointNetDevice/TxQueue/Enqueue ns3::PppHeader (Point-to-Point Protocol: IP (0x0021)) ns3::Ipv4Header (tos 0x0 DSCP Default ECN Not-ECT ttl 60 id 1 protocol 17 offset (bytes) 0 flags [none] length: 1052 10.0.0.1 > 10.0.6.2) ns3::UdpHeader (length: 1032 49153 > 9) Payload (size=1024)
- 6.01475 /NodeList/7/DeviceList/2/$ns3::PointToPointNetDevice/TxQueue/Dequeue ns3::PppHeader (Point-to-Point Protocol: IP (0x0021)) ns3::Ipv4Header (tos 0x0 DSCP Default ECN Not-ECT ttl 60 id 1 protocol 17 offset (bytes) 0 flags [none] length: 1052 10.0.0.1 > 10.0.6.2) ns3::UdpHeader (length: 1032 49153 > 9) Payload (size=1024)
r 6.01843 /NodeList/5/DeviceList/4/$ns3::PointToPointNetDevice/MacRx ns3::PppHeader (Point-to-Point Protocol: IP (0x0021)) ns3::Ipv4Header (tos 0x0 DSCP Default ECN Not-ECT ttl 60 id 1 protocol 17 offset (bytes) 0 flags [none] length: 1052 10.0.0.1 > 10.0.6.2) ns3::UdpHeader (length: 1032 49153 > 9) Payload (size=1024)
+ 6.01843 /NodeList/5/DeviceList/2/$ns3::PointToPointNetDevice/TxQueue/Enqueue ns3::PppHeader (Point-to-Point Protocol: IP (0x0021)) ns3::Ipv4Header (tos 0x0 DSCP Default ECN Not-ECT ttl 59 id 1 protocol 17 offset (bytes) 0 flags [none] length: 1052 10.0.0.1 > 10.0.6.2) ns3::UdpHeader (length: 1032 49153 > 9) Payload (size=1024)
- 6.01843 /NodeList/5/DeviceList/2/$ns3::PointToPointNetDevice/TxQueue/Dequeue ns3::PppHeader (Point-to-Point Protocol: IP (0x0021)) ns3::Ipv4Header (tos 0x0 DSCP Default ECN Not-ECT ttl 59 id 1 protocol 17 offset (bytes) 0 flags [none] length: 1052 10.0.0.1 > 10.0.6.2) ns3::UdpHeader (length: 1032 49153 > 9) Payload (size=1024)
r 6.02212 /NodeList/1/DeviceList/1/$ns3::PointToPointNetDevice/MacRx ns3::PppHeader (Point-to-Point Protocol: IP (0x0021)) ns3::Ipv4Header (tos 0x0 DSCP Default ECN Not-ECT ttl 59 id 1 protocol 17 offset (bytes) 0 flags [none] length: 1052 10.0.0.1 > 10.0.6.2) ns3::UdpHeader (length: 1032 49153 > 9) Payload (size=1024)
+ 6.02212 /NodeList/1/DeviceList/1/$ns3::PointToPointNetDevice/TxQueue/Enqueue ns3::PppHeader (Point-to-Point Protocol: IP (0x0021)) ns3::Ipv4Header (tos 0x0 DSCP Default ECN Not-ECT ttl 64 id 1 protocol 17 offset (bytes) 0 flags [none] length: 1052 10.0.6.2 > 10.0.0.1) ns3::UdpHeader (length: 1032 9 > 49153) Payload (size=1024)
- 6.02212 /NodeList/1/DeviceList/1/$ns3::PointToPointNetDevice/TxQueue/Dequeue ns3::PppHeader (Point-to-Point Protocol: IP (0x0021)) ns3::Ipv4Header (tos 0x0 DSCP Default ECN Not-ECT ttl 64 id 1 protocol 17 offset (bytes) 0 flags [none] length: 1052 10.0.6.2 > 10.0.0.1) ns3::UdpHeader (length: 1032 9 > 49153) Payload (size=1024)
r 6.0258 /NodeList/5/DeviceList/2/$ns3::PointToPointNetDevice/MacRx ns3::PppHeader (Point-to-Point Protocol: IP (0x0021)) ns3::Ipv4Header (tos 0x0 DSCP Default ECN Not-ECT ttl 64 id 1 protocol 17 offset (bytes) 0 flags [none] length: 1052 10.0.6.2 > 10.0.0.1) ns3::UdpHeader (length: 1032 9 > 49153) Payload (size=1024)
+ 6.0258 /NodeList/5/DeviceList/4/$ns3::PointToPointNetDevice/TxQueue/Enqueue ns3::PppHeader (Point-to-Point Protocol: IP (0x0021)) ns3::Ipv4Header (tos 0x0 DSCP Default ECN Not-ECT ttl 63 id 1 protocol 17 offset (bytes) 0 flags [none] length: 1052 10.0.6.2 > 10.0.0.1) ns3::UdpHeader (length: 1032 9 > 49153) Payload (size=1024)
- 6.0258 /NodeList/5/DeviceList/4/$ns3::PointToPointNetDevice/TxQueue/Dequeue ns3::PppHeader (Point-to-Point Protocol: IP (0x0021)) ns3::Ipv4Header (tos 0x0 DSCP Default ECN Not-ECT ttl 63 id 1 protocol 17 offset (bytes) 0 flags [none] length: 1052 10.0.6.2 > 10.0.0.1) ns3::UdpHeader (length: 1032 9 > 49153) Payload (size=1024)
r 6.02949 /NodeList/7/DeviceList/2/$ns3::PointToPointNetDevice/MacRx ns3::PppHeader (Point-to-Point Protocol: IP (0x0021)) ns3::Ipv4Header (tos 0x0 DSCP Default ECN Not-ECT ttl 63 id 1 protocol 17 offset (bytes) 0 flags [none] length: 1052 10.0.6.2 > 10.0.0.1) ns3::UdpHeader (length: 1032 9 > 49153) Payload (size=1024)
+ 6.02949 /NodeList/7/DeviceList/1/$ns3::PointToPointNetDevice/TxQueue/Enqueue ns3::PppHeader (Point-to-Point Protocol: IP (0x0021)) ns3::Ipv4Header (tos 0x0 DSCP Default ECN Not-ECT ttl 62 id 1 protocol 17 offset (bytes) 0 flags [none] length: 1052 10.0.6.2 > 10.0.0.1) ns3::UdpHeader (length: 1032 9 > 49153) Payload (size=1024)
- 6.02949 /NodeList/7/DeviceList/1/$ns3::PointToPointNetDevice/TxQueue/Dequeue ns3::PppHeader (Point-to-Point Protocol: IP (0x0021)) ns3::Ipv4Header (tos 0x0 DSCP Default ECN Not-ECT ttl 62 id 1 protocol 17 offset (bytes) 0 flags [none] length: 1052 10.0.6.2 > 10.0.0.1) ns3::UdpHeader (length: 1032 9 > 49153) Payload (size=1024)
r 6.03318 /NodeList/6/DeviceList/4/$ns3::PointToPointNetDevice/MacRx ns3::PppHeader (Point-to-Point Protocol: IP (0x0021)) ns3::Ipv4Header (tos 0x0 DSCP Default ECN Not-ECT ttl 62 id 1 protocol 17 offset (bytes) 0 flags [none] length: 1052 10.0.6.2 > 10.0.0.1) ns3::UdpHeader (length: 1032 9 > 49153) Payload (size=1024)
+ 6.03318 /NodeList/6/DeviceList/2/$ns3::PointToPointNetDevice/TxQueue/Enqueue ns3::PppHeader (Point-to-Point Protocol: IP (0x0021)) ns3::Ipv4Header (tos 0x0 DSCP Default ECN Not-ECT ttl 61 id 1 protocol 17 offset (bytes) 0 flags [none] length: 1052 10.0.6.2 > 10.0.0.1) ns3::UdpHeader (length: 1032 9 > 49153) Payload (size=1024)
- 6.03318 /NodeList/6/DeviceList/2/$ns3::PointToPointNetDevice/TxQueue/Dequeue ns3::PppHeader (Point-to-Point Protocol: IP (0x0021)) ns3::Ipv4Header (tos 0x0 DSCP Default ECN Not-ECT ttl 61 id 1 protocol 17 offset (bytes) 0 flags [none] length: 1052 10.0.6.2 > 10.0.0.1) ns3::UdpHeader (length: 1032 9 > 49153) Payload (size=1024)
r 6.03686 /NodeList/4/DeviceList/3/$ns3::PointToPointNetDevice/MacRx ns3::PppHeader (Point-to-Point Protocol: IP (0x0021)) ns3::Ipv4Header (tos 0x0 DSCP Default ECN Not-ECT ttl 61 id 1 protocol 17 offset (bytes) 0 flags [none] length: 1052 10.0.6.2 > 10.0.0.1) ns3::UdpHeader (length: 1032 9 > 49153) Payload (size=1024)
+ 6.03686 /NodeList/4/DeviceList/1/$ns3::PointToPointNetDevice/TxQueue/Enqueue ns3::PppHeader (Point-to-Point Protocol: IP (0x0021)) ns3::Ipv4Header (tos 0x0 DSCP Default ECN Not-ECT ttl 60 id 1 protocol 17 offset (bytes) 0 flags [none] length: 1052 10.0.6.2 > 10.0.0.1) ns3::UdpHeader (length: 1032 9 > 49153) Payload (size=1024)
- 6.03686 /NodeList/4/DeviceList/1/$ns3::PointToPointNetDevice/TxQueue/Dequeue ns3::PppHeader (Point-to-Point Protocol: IP (0x0021)) ns3::Ipv4Header (tos 0x0 DSCP Default ECN Not-ECT ttl 60 id 1 protocol 17 offset (bytes) 0 flags [none] length: 1052 10.0.6.2 > 10.0.0.1) ns3::UdpHeader (length: 1032 9 > 49153) Payload (size=1024)
r 6.04055 /NodeList/2/DeviceList/3/$ns3::PointToPointNetDevice/MacRx ns3::PppHeader (Point-to-Point Protocol: IP (0x0021)) ns3::Ipv4Header (tos 0x0 DSCP Default ECN Not-ECT ttl 60 id 1 protocol 17 offset (bytes) 0 flags [none] length: 1052 10.0.6.2 > 10.0.0.1) ns3::UdpHeader (length: 1032 9 > 49153) Payload (size=1024)
+ 6.04055 /NodeList/2/DeviceList/1/$ns3::PointToPointNetDevice/TxQueue/Enqueue ns3::PppHeader (Point-to-Point Protocol: IP (0x0021)) ns3::Ipv4Header (tos 0x0 DSCP Default ECN Not-ECT ttl 59 id 1 protocol 17 offset (bytes) 0 flags [none] length: 1052 10.0.6.2 > 10.0.0.1) ns3::UdpHeader (length: 1032 9 > 49153) Payload (size=1024)
- 6.04055 /NodeList/2/DeviceList/1/$ns3::PointToPointNetDevice/TxQueue/Dequeue ns3::PppHeader (Point-to-Point Protocol: IP (0x0021)) ns3::Ipv4Header (tos 0x0 DSCP Default ECN Not-ECT ttl 59 id 1 protocol 17 offset (bytes) 0 flags [none] length: 1052 10.0.6.2 > 10.0.0.1) ns3::UdpHeader (length: 1032 9 > 49153) Payload (size=1024)
r 6.04424 /NodeList/0/DeviceList/1/$ns3::PointToPointNetDevice/MacRx ns3::PppHeader (Point-to-Point Protocol: IP (0x0021)) ns3::Ipv4Header (tos 0x0 DSCP Default ECN Not-ECT ttl 59 id 1 protocol 17 offset (bytes) 0 flags [none] length: 1052 10.0.6.2 > 10.0.0.1) ns3::UdpHeader (length: 1032 9 > 49153) Payload (size=1024)
+ 10 /NodeList/0/DeviceList/1/$ns3::PointToPointNetDevice/TxQueue/Enqueue ns3::PppHeader (Point-to-Point Protocol: IP (0x0021)) ns3::Ipv4Header (tos 0x0 DSCP Default ECN Not-ECT ttl 64 id 2 protocol 17 offset (bytes) 0 flags [none] length: 1052 10.0.0.1 > 10.0.6.2) ns3::UdpHeader (length: 1032 49153 > 9) Payload (size=1024)
- 10 /NodeList/0/DeviceList/1/$ns3::PointToPointNetDevice/TxQueue/Dequeue ns3::PppHeader (Point-to-Point Protocol: IP (0x0021)) ns3::Ipv4Header (tos 0x0 DSCP Default ECN Not-ECT ttl 64 id 2 protocol 17 offset (bytes) 0 flags [none] length: 1052 10.0.0.1 > 10.0.6.2) ns3::UdpHeader (length: 1032 49153 > 9) Payload (size=1024)
r 10.0037 /NodeList/2/DeviceList/1/$ns3::PointToPointNetDevice/MacRx ns3::PppHeader (Point-to-Point Protocol: IP (0x0021)) ns3::Ipv4Header (tos 0x0 DSCP Default ECN Not-ECT ttl 64 id 2 protocol 17 offset (bytes) 0 flags [none] length: 1052 10.0.0.1 > 10.0.6.2) ns3::UdpHeader (length: 1032 49153 > 9) Payload (size=1024)
+ 10.0037 /NodeList/2/DeviceList/2/$ns3::PointToPointNetDevice/TxQueue/Enqueue ns3::PppHeader (Point-to-Point Protocol: IP (0x0021)) ns3::Ipv4Header (tos 0x0 DSCP Default ECN Not-ECT ttl 63 id 2 protocol 17 offset (bytes) 0 flags [none] length: 1052 10.0.0.1 > 10.0.6.2) ns3::UdpHeader (length: 1032 49153 > 9) Payload (size=1024)
- 10.0037 /NodeList/2/DeviceList/2/$ns3::PointToPointNetDevice/TxQueue/Dequeue ns3::PppHeader (Point-to-Point Protocol: IP (0x0021)) ns3::Ipv4Header (tos 0x0 DSCP Default ECN Not-ECT ttl 63 id 2 protocol 17 offset (bytes) 0 flags [none] length: 1052 10.0.0.1 > 10.0.6.2) ns3::UdpHeader (length: 1032 49153 > 9) Payload (size=1024)
r 10.0074 /NodeList/3/DeviceList/1/$ns3::PointToPointNetDevice/MacRx ns3::PppHeader (Point-to-Point Protocol: IP (0x0021)) ns3::Ipv4Header (tos 0x0 DSCP Default ECN Not-ECT ttl 63 id 2 protocol 17 offset (bytes) 0 flags [none] length: 1052 10.0.0.1 > 10.0.6.2) ns3::UdpHeader (length: 1032 49153 > 9) Payload (size=1024)
+ 10.0074 /NodeList/3/DeviceList/2/$ns3::PointToPointNetDevice/TxQueue/Enqueue ns3::PppHeader (Point-to-Point Protocol: IP (0x0021)) ns3::Ipv4Header (tos 0x0 DSCP Default ECN Not-ECT ttl 62 id 2 protocol 17 offset (bytes) 0 flags [none] length: 1052 10.0.0.1 > 10.0.6.2) ns3::UdpHeader (length: 1032 49153 > 9) Payload (size=1024)
- 10.0074 /NodeList/3/DeviceList/2/$ns3::PointToPointNetDevice/TxQueue/Dequeue ns3::PppHeader (Point-to-Point Protocol: IP (0x0021)) ns3::Ipv4Header (tos 0x0 DSCP Default ECN Not-ECT ttl 62 id 2 protocol 17 offset (bytes) 0 flags [none] length: 1052 10.0.0.1 > 10.0.6.2) ns3::UdpHeader (length: 1032 49153 > 9) Payload (size=1024)
r 10.0111 /NodeList/6/DeviceList/1/$ns3::PointToPointNetDevice/MacRx ns3::PppHeader (Point-to-Point Protocol: IP (0x0021)) ns3::Ipv4Header (tos 0x0 DSCP Default ECN Not-ECT ttl 62 id 2 protocol 17 offset (bytes) 0 flags [none] length: 1052 10.0.0.1 > 10.0.6.2) ns3::UdpHeader (length: 1032 49153 > 9) Payload (size=1024)
+ 10.0111 /NodeList/6/DeviceList/4/$ns3::PointToPointNetDevice/TxQueue/Enqueue ns3::PppHeader (Point-to-Point Protocol: IP (0x0021)) ns3::Ipv4Header (tos 0x0 DSCP Default ECN Not-ECT ttl 61 id 2 protocol 17 offset (bytes) 0 flags [none] length: 1052 10.0.0.1 > 10.0.6.2) ns3::UdpHeader (length: 1032 49153 > 9) Payload (size=1024)
- 10.0111 /NodeList/6/DeviceList/4/$ns3::PointToPointNetDevice/TxQueue/Dequeue ns3::PppHeader (Point-to-Point Protocol: IP (0x0021)) ns3::Ipv4Header (tos 0x0 DSCP Default ECN Not-ECT ttl 61 id 2 protocol 17 offset (bytes) 0 flags [none] length: 1052 10.0.0.1 > 10.0.6.2) ns3::UdpHeader (length: 1032 49153 > 9) Payload (size=1024)
r 10.0147 /NodeList/7/DeviceList/1/$ns3::PointToPointNetDevice/MacRx ns3::PppHeader (Point-to-Point Protocol: IP (0x0021)) ns3::Ipv4Header (tos 0x0 DSCP Default ECN Not-ECT ttl 61 id 2 protocol 17 offset (bytes) 0 flags [none] length: 1052 10.0.0.1 > 10.0.6.2) ns3::UdpHeader (length: 1032 49153 > 9) Payload (size=1024)
+ 10.0147 /NodeList/7/DeviceList/2/$ns3::PointToPointNetDevice/TxQueue/Enqueue ns3::PppHeader (Point-to-Point Protocol: IP (0x0021)) ns3::Ipv4Header (tos 0x0 DSCP Default ECN Not-ECT ttl 60 id 2 protocol 17 offset (bytes) 0 flags [none] length: 1052 10.0.0.1 > 10.0.6.2) ns3::UdpHeader (length: 1032 49153 > 9) Payload (size=1024)
- 10.0147 /NodeList/7/DeviceList/2/$ns3::PointToPointNetDevice/TxQueue/Dequeue ns3::PppHeader (Point-to-Point Protocol: IP (0x0021)) ns3::Ipv4Header (tos 0x0 DSCP Default ECN Not-ECT ttl 60 id 2 protocol 17 offset (bytes) 0 flags [none] length: 1052 10.0.0.1 > 10.0.6.2) ns3::UdpHeader (length: 1032 49153 > 9) Payload (size=1024)
r 10.0184 /NodeList/5/DeviceList/4/$ns3::PointToPointNetDevice/MacRx ns3::PppHeader (Point-to-Point Protocol: IP (0x0021)) ns3::Ipv4Header (tos 0x0 DSCP Default ECN Not-ECT ttl 60 id 2 protocol 17 offset (bytes) 0 flags [none] length: 1052 10.0.0.1 > 10.0.6.2) ns3::UdpHeader (length: 1032 49153 > 9) Payload (size=1024)
+ 10.0184 /NodeList/5/DeviceList/2/$ns3::PointToPointNetDevice/TxQueue/Enqueue ns3::PppHeader (Point-to-Point Protocol: IP (0x0021)) ns3::Ipv4Header (tos 0x0 DSCP Default ECN Not-ECT ttl 59 id 2 protocol 17 offset (bytes) 0 flags [none] length: 1052 10.0.0.1 > 10.0.6.2) ns3::UdpHeader (length: 1032 49153 > 9) Payload (size=1024)
- 10.0184 /NodeList/5/DeviceList/2/$ns3::PointToPointNetDevice/TxQueue/Dequeue ns3::PppHeader (Point-to-Point Protocol: IP (0x0021)) ns3::Ipv4Header (tos 0x0 DSCP Default ECN Not-ECT ttl 59 id 2 protocol 17 offset (bytes) 0 flags [none] length: 1052 10.0.0.1 > 10.0.6.2) ns3::UdpHeader (length: 1032 49153 > 9) Payload (size=1024)
r 10.0221 /NodeList/1/DeviceList/1/$ns3::PointToPointNetDevice/MacRx ns3::PppHeader (Point-to-Point Protocol: IP (0x0021)) ns3::Ipv4Header (tos 0x0 DSCP Default ECN Not-ECT ttl 59 id 2 protocol 17 offset (bytes) 0 flags [none] length: 1052 10.0.0.1 > 10.0.6.2) ns3::UdpHeader (length: 1032 49153 > 9) Payload (size=1024)
+ 10.0221 /NodeList/1/DeviceList/1/$ns3::PointToPointNetDevice/TxQueue/Enqueue ns3::PppHeader (Point-to-Point Protocol: IP (0x0021)) ns3::Ipv4Header (tos 0x0 DSCP Default ECN Not-ECT ttl 64 id 2 protocol 17 offset (bytes) 0 flags [none] length: 1052 10.0.6.2 > 10.0.0.1) ns3::UdpHeader (length: 1032 9 > 49153) Payload (size=1024)