+ 0.237137 /NodeList/6/DeviceList/0/$ns3::PointToPointNetDevice/TxQueue/Enqueue ns3::PppHeader (Point-to-Point Protocol: IP (0x0021)) ns3::Ipv4Header (tos 0x0 DSCP Default ECN Not-ECT ttl 1 id 0 protocol 17 offset (bytes) 0 flags [none] length: 52 10.0.3.2 > 224.0.0.9) ns3::UdpHeader (length: 32 520 > 520) ns3::RipHeader (command 1 | prefix 0.0.0.0/0 Metric 16 Tag 0 Next Hop 0.0.0.0)
- 0.237137 /NodeList/6/DeviceList/0/$ns3::PointToPointNetDevice/TxQueue/Dequeue ns3::PppHeader (Point-to-Point Protocol: IP (0x0021)) ns3::Ipv4Header (tos 0x0 DSCP Default ECN Not-ECT ttl 1 id 0 protocol 17 offset (bytes) 0 flags [none] length: 52 10.0.3.2 > 224.0.0.9) ns3::UdpHeader (length: 32 520 > 520) ns3::RipHeader (command 1 | prefix 0.0.0.0/0 Metric 16 Tag 0 Next Hop 0.0.0.0)
+ 0.237137 /NodeList/6/DeviceList/1/$ns3::PointToPointNetDevice/TxQueue/Enqueue ns3::PppHeader (Point-to-Point Protocol: IP (0x0021)) ns3::Ipv4Header (tos 0x0 DSCP Default ECN Not-ECT ttl 1 id 0 protocol 17 offset (bytes) 0 flags [none] length: 52 10.0.5.2 > 224.0.0.9) ns3::UdpHeader (length: 32 520 > 520) ns3::RipHeader (command 1 | prefix 0.0.0.0/0 Metric 16 Tag 0 Next Hop 0.0.0.0)
- 0.237137 /NodeList/6/DeviceList/1/$ns3::PointToPointNetDevice/TxQueue/Dequeue ns3::PppHeader (Point-to-Point Protocol: IP (0x0021)) ns3::Ipv4Header (tos 0x0 DSCP Default ECN Not-ECT ttl 1 id 0 protocol 17 offset (bytes) 0 flags [none] length: 52 10.0.5.2 > 224.0.0.9) ns3::UdpHeader (length: 32 520 > 520) ns3::RipHeader (command 1 | prefix 0.0.0.0/0 Metric 16 Tag 0 Next Hop 0.0.0.0)
+ 0.237137 /NodeList/6/DeviceList/2/$ns3::PointToPointNetDevice/TxQueue/Enqueue ns3::PppHeader (Point-to-Point Protocol: IP (0x0021)) ns3::Ipv4Header (tos 0x0 DSCP Default ECN Not-ECT ttl 1 id 0 protocol 17 offset (bytes) 0 flags [none] length: 52 10.0.7.1 > 224.0.0.9) ns3::UdpHeader (length: 32 520 > 520) ns3::RipHeader (command 1 | prefix 0.0.0.0/0 Metric 16 Tag 0 Next Hop 0.0.0.0)
- 0.237137 /NodeList/6/DeviceList/2/$ns3::PointToPointNetDevice/TxQueue/Dequeue ns3::PppHeader (Point-to-Point Protocol: IP (0x0021)) ns3::Ipv4Header (tos 0x0 DSCP Default ECN Not-ECT ttl 1 id 0 protocol 17 offset (bytes) 0 flags [none] length: 52 10.0.7.1 > 224.0.0.9) ns3::UdpHeader (length: 32 520 > 520) ns3::RipHeader (command 1 | prefix 0.0.0.0/0 Metric 16 Tag 0 Next Hop 0.0.0.0)
+ 0.237137 /NodeList/6/DeviceList/3/$ns3::PointToPointNetDevice/TxQueue/Enqueue ns3::PppHeader (Point-to-Point Protocol: IP (0x0021)) ns3::Ipv4Header (tos 0x0 DSCP Default ECN Not-ECT ttl 1 id 0 protocol 17 offset (bytes) 0 flags [none] length: 52 10.0.8.1 > 224.0.0.9) ns3::UdpHeader (length: 32 520 > 520) ns3::RipHeader (command 1 | prefix 0.0.0.0/0 Metric 16 Tag 0 Next Hop 0.0.0.0)
- 0.237137 /NodeList/6/DeviceList/3/$ns3::PointToPointNetDevice/TxQueue/Dequeue ns3::PppHeader (Point-to-Point Protocol: IP (0x0021)) ns3::Ipv4Header (tos 0x0 DSCP Default ECN Not-ECT ttl 1 id 0 protocol 17 offset (bytes) 0 flags [none] length: 52 10.0.8.1 > 224.0.0.9) ns3::UdpHeader (length: 32 520 > 520) ns3::RipHeader (command 1 | prefix 0.0.0.0/0 Metric 16 Tag 0 Next Hop 0.0.0.0)
r 0.239223 /NodeList/3/DeviceList/1/$ns3::PointToPointNetDevice/MacRx ns3::PppHeader (Point-to-Point Protocol: IP (0x0021)) ns3::Ipv4Header (tos 0x0 DSCP Default ECN Not-ECT ttl 1 id 0 protocol 17 offset (bytes) 0 flags [none] length: 52 10.0.3.2 > 224.0.0.9) ns3::UdpHeader (length: 32 520 > 520) ns3::RipHeader (command 1 | prefix 0.0.0.0/0 Metric 16 Tag 0 Next Hop 0.0.0.0)
+ 0.239223 /NodeList/3/DeviceList/1/$ns3::PointToPointNetDevice/TxQueue/Enqueue ns3::PppHeader (Point-to-Point Protocol: IP (0x0021)) ns3::Ipv4Header (tos 0x0 DSCP Default ECN Not-ECT ttl 255 id 0 protocol 17 offset (bytes) 0 flags [none] length: 72 10.0.3.1 > 10.0.3.2) ns3::UdpHeader (length: 52 520 > 520) ns3::RipHeader (command 2 | prefix 10.0.1.0/24 Metric 1 Tag 0 Next Hop 0.0.0.0 | prefix 10.0.3.0/24 Metric 16 Tag 0 Next Hop 0.0.0.0)
- 0.239223 /NodeList/3/DeviceList/1/$ns3::PointToPointNetDevice/TxQueue/Dequeue ns3::PppHeader (Point-to-Point Protocol: IP (0x0021)) ns3::Ipv4Header (tos 0x0 DSCP Default ECN Not-ECT ttl 255 id 0 protocol 17 offset (bytes) 0 flags [none] length: 72 10.0.3.1 > 10.0.3.2) ns3::UdpHeader (length: 52 520 > 520) ns3::RipHeader (command 2 | prefix 10.0.1.0/24 Metric 1 Tag 0 Next Hop 0.0.0.0 | prefix 10.0.3.0/24 Metric 16 Tag 0 Next Hop 0.0.0.0)
r 0.239223 /NodeList/4/DeviceList/2/$ns3::PointToPointNetDevice/MacRx ns3::PppHeader (Point-to-Point Protocol: IP (0x0021)) ns3::Ipv4Header (tos 0x0 DSCP Default ECN Not-ECT ttl 1 id 0 protocol 17 offset (bytes) 0 flags [none] length: 52 10.0.5.2 > 224.0.0.9) ns3::UdpHeader (length: 32 520 > 520) ns3::RipHeader (command 1 | prefix 0.0.0.0/0 Metric 16 Tag 0 Next Hop 0.0.0.0)
+ 0.239223 /NodeList/4/DeviceList/2/$ns3::PointToPointNetDevice/TxQueue/Enqueue ns3::PppHeader (Point-to-Point Protocol: IP (0x0021)) ns3::Ipv4Header (tos 0x0 DSCP Default ECN Not-ECT ttl 255 id 0 protocol 17 offset (bytes) 0 flags [none] length: 92 10.0.5.1 > 10.0.5.2) ns3::UdpHeader (length: 72 520 > 520) ns3::RipHeader (command 2 | prefix 10.0.2.0/24 Metric 1 Tag 0 Next Hop 0.0.0.0 | prefix 10.0.4.0/24 Metric 1 Tag 0 Next Hop 0.0.0.0 | prefix 10.0.5.0/24 Metric 16 Tag 0 Next Hop 0.0.0.0)
- 0.239223 /NodeList/4/DeviceList/2/$ns3::PointToPointNetDevice/TxQueue/Dequeue ns3::PppHeader (Point-to-Point Protocol: IP (0x0021)) ns3::Ipv4Header (tos 0x0 DSCP Default ECN Not-ECT ttl 255 id 0 protocol 17 offset (bytes) 0 flags [none] length: 92 10.0.5.1 > 10.0.5.2) ns3::UdpHeader (length: 72 520 > 520) ns3::RipHeader (command 2 | prefix 10.0.2.0/24 Metric 1 Tag 0 Next Hop 0.0.0.0 | prefix 10.0.4.0/24 Metric 1 Tag 0 Next Hop 0.0.0.0 | prefix 10.0.5.0/24 Metric 16 Tag 0 Next Hop 0.0.0.0)
r 0.239223 /NodeList/5/DeviceList/2/$ns3::PointToPointNetDevice/MacRx ns3::PppHeader (Point-to-Point Protocol: IP (0x0021)) ns3::Ipv4Header (tos 0x0 DSCP Default ECN Not-ECT ttl 1 id 0 protocol 17 offset (bytes) 0 flags [none] length: 52 10.0.7.1 > 224.0.0.9) ns3::UdpHeader (length: 32 520 > 520) ns3::RipHeader (command 1 | prefix 0.0.0.0/0 Metric 16 Tag 0 Next Hop 0.0.0.0)
+ 0.239223 /NodeList/5/DeviceList/2/$ns3::PointToPointNetDevice/TxQueue/Enqueue ns3::PppHeader (Point-to-Point Protocol: IP (0x0021)) ns3::Ipv4Header (tos 0x0 DSCP Default ECN Not-ECT ttl 255 id 0 protocol 17 offset (bytes) 0 flags [none] length: 112 10.0.7.2 > 10.0.7.1) ns3::UdpHeader (length: 92 520 > 520) ns3::RipHeader (command 2 | prefix 10.0.4.0/24 Metric 1 Tag 0 Next Hop 0.0.0.0 | prefix 10.0.6.0/24 Metric 1 Tag 0 Next Hop 0.0.0.0 | prefix 10.0.7.0/24 Metric 16 Tag 0 Next Hop 0.0.0.0 | prefix 10.0.9.0/24 Metric 1 Tag 0 Next Hop 0.0.0.0)
- 0.239223 /NodeList/5/DeviceList/2/$ns3::PointToPointNetDevice/TxQueue/Dequeue ns3::PppHeader (Point-to-Point Protocol: IP (0x0021)) ns3::Ipv4Header (tos 0x0 DSCP Default ECN Not-ECT ttl 255 id 0 protocol 17 offset (bytes) 0 flags [none] length: 112 10.0.7.2 > 10.0.7.1) ns3::UdpHeader (length: 92 520 > 520) ns3::RipHeader (command 2 | prefix 10.0.4.0/24 Metric 1 Tag 0 Next Hop 0.0.0.0 | prefix 10.0.6.0/24 Metric 1 Tag 0 Next Hop 0.0.0.0 | prefix 10.0.7.0/24 Metric 16 Tag 0 Next Hop 0.0.0.0 | prefix 10.0.9.0/24 Metric 1 Tag 0 Next Hop 0.0.0.0)
r 0.239223 /NodeList/7/DeviceList/0/$ns3::PointToPointNetDevice/MacRx ns3::PppHeader (Point-to-Point Protocol: IP (0x0021)) ns3::Ipv4Header (tos 0x0 DSCP Default ECN Not-ECT ttl 1 id 0 protocol 17 offset (bytes) 0 flags [none] length: 52 10.0.8.1 > 224.0.0.9) ns3::UdpHeader (length: 32 520 > 520) ns3::RipHeader (command 1 | prefix 0.0.0.0/0 Metric 16 Tag 0 Next Hop 0.0.0.0)
+ 0.239223 /NodeList/7/DeviceList/0/$ns3::PointToPointNetDevice/TxQueue/Enqueue ns3::PppHeader (Point-to-Point Protocol: IP (0x0021)) ns3::Ipv4Header (tos 0x0 DSCP Default ECN Not-ECT ttl 255 id 0 protocol 17 offset (bytes) 0 flags [none] length: 72 10.0.8.2 > 10.0.8.1) ns3::UdpHeader (length: 52 520 > 520) ns3::RipHeader (command 2 | prefix 10.0.8.0/24 Metric 16 Tag 0 Next Hop 0.0.0.0 | prefix 10.0.9.0/24 Metric 1 Tag 0 Next Hop 0.0.0.0)
- 0.239223 /NodeList/7/DeviceList/0/$ns3::PointToPointNetDevice/TxQueue/Dequeue ns3::PppHeader (Point-to-Point Protocol: IP (0x0021)) ns3::Ipv4Header (tos 0x0 DSCP Default ECN Not-ECT ttl 255 id 0 protocol 17 offset (bytes) 0 flags [none] length: 72 10.0.8.2 > 10.0.8.1) ns3::UdpHeader (length: 52 520 > 520) ns3::RipHeader (command 2 | prefix 10.0.8.0/24 Metric 16 Tag 0 Next Hop 0.0.0.0 | prefix 10.0.9.0/24 Metric 1 Tag 0 Next Hop 0.0.0.0)
r 0.241341 /NodeList/6/DeviceList/0/$ns3::PointToPointNetDevice/MacRx ns3::PppHeader (Point-to-Point Protocol: IP (0x0021)) ns3::Ipv4Header (tos 0x0 DSCP Default ECN Not-ECT ttl 255 id 0 protocol 17 offset (bytes) 0 flags [none] length: 72 10.0.3.1 > 10.0.3.2) ns3::UdpHeader (length: 52 520 > 520) ns3::RipHeader (command 2 | prefix 10.0.1.0/24 Metric 1 Tag 0 Next Hop 0.0.0.0 | prefix 10.0.3.0/24 Metric 16 Tag 0 Next Hop 0.0.0.0)
r 0.241341 /NodeList/6/DeviceList/3/$ns3::PointToPointNetDevice/MacRx ns3::PppHeader (Point-to-Point Protocol: IP (0x0021)) ns3::Ipv4Header (tos 0x0 DSCP Default ECN Not-ECT ttl 255 id 0 protocol 17 offset (bytes) 0 flags [none] length: 72 10.0.8.2 > 10.0.8.1) ns3::UdpHeader (length: 52 520 > 520) ns3::RipHeader (command 2 | prefix 10.0.8.0/24 Metric 16 Tag 0 Next Hop 0.0.0.0 | prefix 10.0.9.0/24 Metric 1 Tag 0 Next Hop 0.0.0.0)
r 0.241373 /NodeList/6/DeviceList/1/$ns3::PointToPointNetDevice/MacRx ns3::PppHeader (Point-to-Point Protocol: IP (0x0021)) ns3::Ipv4Header (tos 0x0 DSCP Default ECN Not-ECT ttl 255 id 0 protocol 17 offset (bytes) 0 flags [none] length: 92 10.0.5.1 > 10.0.5.2) ns3::UdpHeader (length: 72 520 > 520) ns3::RipHeader (command 2 | prefix 10.0.2.0/24 Metric 1 Tag 0 Next Hop 0.0.0.0 | prefix 10.0.4.0/24 Metric 1 Tag 0 Next Hop 0.0.0.0 | prefix 10.0.5.0/24 Metric 16 Tag 0 Next Hop 0.0.0.0)
r 0.241405 /NodeList/6/DeviceList/2/$ns3::PointToPointNetDevice/MacRx ns3::PppHeader (Point-to-Point Protocol: IP (0x0021)) ns3::Ipv4Header (tos 0x0 DSCP Default ECN Not-ECT ttl 255 id 0 protocol 17 offset (bytes) 0 flags [none] length: 112 10.0.7.2 > 10.0.7.1) ns3::UdpHeader (length: 92 520 > 520) ns3::RipHeader (command 2 | prefix 10.0.4.0/24 Metric 1 Tag 0 Next Hop 0.0.0.0 | prefix 10.0.6.0/24 Metric 1 Tag 0 Next Hop 0.0.0.0 | prefix 10.0.7.0/24 Metric 16 Tag 0 Next Hop 0.0.0.0 | prefix 10.0.9.0/24 Metric 1 Tag 0 Next Hop 0.0.0.0)
+ 0.553292 /NodeList/2/DeviceList/0/$ns3::PointToPointNetDevice/TxQueue/Enqueue ns3::PppHeader (Point-to-Point Protocol: IP (0x0021)) ns3::Ipv4Header (tos 0x0 DSCP Default ECN Not-ECT ttl 1 id 0 protocol 17 offset (bytes) 0 flags [none] length: 52 10.0.0.2 > 224.0.0.9) ns3::UdpHeader (length: 32 520 > 520) ns3::RipHeader (command 1 | prefix 0.0.0.0/0 Metric 16 Tag 0 Next Hop 0.0.0.0)
- 0.553292 /NodeList/2/DeviceList/0/$ns3::PointToPointNetDevice/TxQueue/Dequeue ns3::PppHeader (Point-to-Point Protocol: IP (0x0021)) ns3::Ipv4Header (tos 0x0 DSCP Default ECN Not-ECT ttl 1 id 0 protocol 17 offset (bytes) 0 flags [none] length: 52 10.0.0.2 > 224.0.0.9) ns3::UdpHeader (length: 32 520 > 520) ns3::RipHeader (command 1 | prefix 0.0.0.0/0 Metric 16 Tag 0 Next Hop 0.0.0.0)
+ 0.553292 /NodeList/2/DeviceList/1/$ns3::PointToPointNetDevice/TxQueue/Enqueue ns3::PppHeader (Point-to-Point Protocol: IP (0x0021)) ns3::Ipv4Header (tos 0x0 DSCP Default ECN Not-ECT ttl 1 id 0 protocol 17 offset (bytes) 0 flags [none] length: 52 10.0.1.1 > 224.0.0.9) ns3::UdpHeader (length: 32 520 > 520) ns3::RipHeader (command 1 | prefix 0.0.0.0/0 Metric 16 Tag 0 Next Hop 0.0.0.0)
- 0.553292 /NodeList/2/DeviceList/1/$ns3::PointToPointNetDevice/TxQueue/Dequeue ns3::PppHeader (Point-to-Point Protocol: IP (0x0021)) ns3::Ipv4Header (tos 0x0 DSCP Default ECN Not-ECT ttl 1 id 0 protocol 17 offset (bytes) 0 flags [none] length: 52 10.0.1.1 > 224.0.0.9) ns3::UdpHeader (length: 32 520 > 520) ns3::RipHeader (command 1 | prefix 0.0.0.0/0 Metric 16 Tag 0 Next Hop 0.0.0.0)
+ 0.553292 /NodeList/2/DeviceList/2/$ns3::PointToPointNetDevice/TxQueue/Enqueue ns3::PppHeader (Point-to-Point Protocol: IP (0x0021)) ns3::Ipv4Header (tos 0x0 DSCP Default ECN Not-ECT ttl 1 id 0 protocol 17 offset (bytes) 0 flags [none] length: 52 10.0.2.1 > 224.0.0.9) ns3::UdpHeader (length: 32 520 > 520) ns3::RipHeader (command 1 | prefix 0.0.0.0/0 Metric 16 Tag 0 Next Hop 0.0.0.0)
- 0.553292 /NodeList/2/DeviceList/2/$ns3::PointToPointNetDevice/TxQueue/Dequeue ns3::PppHeader (Point-to-Point Protocol: IP (0x0021)) ns3::Ipv4Header (tos 0x0 DSCP Default ECN Not-ECT ttl 1 id 0 protocol 17 offset (bytes) 0 flags [none] length: 52 10.0.2.1 > 224.0.0.9) ns3::UdpHeader (length: 32 520 > 520) ns3::RipHeader (command 1 | prefix 0.0.0.0/0 Metric 16 Tag 0 Next Hop 0.0.0.0)
r 0.555379 /NodeList/0/DeviceList/0/$ns3::PointToPointNetDevice/MacRx ns3::PppHeader (Point-to-Point Protocol: IP (0x0021)) ns3::Ipv4Header (tos 0x0 DSCP Default ECN Not-ECT ttl 1 id 0 protocol 17 offset (bytes) 0 flags [none] length: 52 10.0.0.2 > 224.0.0.9) ns3::UdpHeader (length: 32 520 > 520) ns3::RipHeader (command 1 | prefix 0.0.0.0/0 Metric 16 Tag 0 Next Hop 0.0.0.0)
r 0.555379 /NodeList/3/DeviceList/0/$ns3::PointToPointNetDevice/MacRx ns3::PppHeader (Point-to-Point Protocol: IP (0x0021)) ns3::Ipv4Header (tos 0x0 DSCP Default ECN Not-ECT ttl 1 id 0 protocol 17 offset (bytes) 0 flags [none] length: 52 10.0.1.1 > 224.0.0.9) ns3::UdpHeader (length: 32 520 > 520) ns3::RipHeader (command 1 | prefix 0.0.0.0/0 Metric 16 Tag 0 Next Hop 0.0.0.0)
+ 0.555379 /NodeList/3/DeviceList/0/$ns3::PointToPointNetDevice/TxQueue/Enqueue ns3::PppHeader (Point-to-Point Protocol: IP (0x0021)) ns3::Ipv4Header (tos 0x0 DSCP Default ECN Not-ECT ttl 255 id 0 protocol 17 offset (bytes) 0 flags [none] length: 72 10.0.1.2 > 10.0.1.1) ns3::UdpHeader (length: 52 520 > 520) ns3::RipHeader (command 2 | prefix 10.0.1.0/24 Metric 16 Tag 0 Next Hop 0.0.0.0 | prefix 10.0.3.0/24 Metric 1 Tag 0 Next Hop 0.0.0.0)
- 0.555379 /NodeList/3/DeviceList/0/$ns3::PointToPointNetDevice/TxQueue/Dequeue ns3::PppHeader (Point-to-Point Protocol: IP (0x0021)) ns3::Ipv4Header (tos 0x0 DSCP Default ECN Not-ECT ttl 255 id 0 protocol 17 offset (bytes) 0 flags [none] length: 72 10.0.1.2 > 10.0.1.1) ns3::UdpHeader (length: 52 520 > 520) ns3::RipHeader (command 2 | prefix 10.0.1.0/24 Metric 16 Tag 0 Next Hop 0.0.0.0 | prefix 10.0.3.0/24 Metric 1 Tag 0 Next Hop 0.0.0.0)
r 0.555379 /NodeList/4/DeviceList/0/$ns3::PointToPointNetDevice/MacRx ns3::PppHeader (Point-to-Point Protocol: IP (0x0021)) ns3::Ipv4Header (tos 0x0 DSCP Default ECN Not-ECT ttl 1 id 0 protocol 17 offset (bytes) 0 flags [none] length: 52 10.0.2.1 > 224.0.0.9) ns3::UdpHeader (length: 32 520 > 520) ns3::RipHeader (command 1 | prefix 0.0.0.0/0 Metric 16 Tag 0 Next Hop 0.0.0.0)
+ 0.555379 /NodeList/4/DeviceList/0/$ns3::PointToPointNetDevice/TxQueue/Enqueue ns3::PppHeader (Point-to-Point Protocol: IP (0x0021)) ns3::Ipv4Header (tos 0x0 DSCP Default ECN Not-ECT ttl 255 id 0 protocol 17 offset (bytes) 0 flags [none] length: 92 10.0.2.2 > 10.0.2.1) ns3::UdpHeader (length: 72 520 > 520) ns3::RipHeader (command 2 | prefix 10.0.2.0/24 Metric 16 Tag 0 Next Hop 0.0.0.0 | prefix 10.0.4.0/24 Metric 1 Tag 0 Next Hop 0.0.0.0 | prefix 10.0.5.0/24 Metric 1 Tag 0 Next Hop 0.0.0.0)
- 0.555379 /NodeList/4/DeviceList/0/$ns3::PointToPointNetDevice/TxQueue/Dequeue ns3::PppHeader (Point-to-Point Protocol: IP (0x0021)) ns3::Ipv4Header (tos 0x0 DSCP Default ECN Not-ECT ttl 255 id 0 protocol 17 offset (bytes) 0 flags [none] length: 92 10.0.2.2 > 10.0.2.1) ns3::UdpHeader (length: 72 520 > 520) ns3::RipHeader (command 2 | prefix 10.0.2.0/24 Metric 16 Tag 0 Next Hop 0.0.0.0 | prefix 10.0.4.0/24 Metric 1 Tag 0 Next Hop 0.0.0.0 | prefix 10.0.5.0/24 Metric 1 Tag 0 Next Hop 0.0.0.0)
r 0.557497 /NodeList/2/DeviceList/1/$ns3::PointToPointNetDevice/MacRx ns3::PppHeader (Point-to-Point Protocol: IP (0x0021)) ns3::Ipv4Header (tos 0x0 DSCP Default ECN Not-ECT ttl 255 id 0 protocol 17 offset (bytes) 0 flags [none] length: 72 10.0.1.2 > 10.0.1.1) ns3::UdpHeader (length: 52 520 > 520) ns3::RipHeader (command 2 | prefix 10.0.1.0/24 Metric 16 Tag 0 Next Hop 0.0.0.0 | prefix 10.0.3.0/24 Metric 1 Tag 0 Next Hop 0.0.0.0)
r 0.557529 /NodeList/2/DeviceList/2/$ns3::PointToPointNetDevice/MacRx ns3::PppHeader (Point-to-Point Protocol: IP (0x0021)) ns3::Ipv4Header (tos 0x0 DSCP Default ECN Not-ECT ttl 255 id 0 protocol 17 offset (bytes) 0 flags [none] length: 92 10.0.2.2 > 10.0.2.1) ns3::UdpHeader (length: 72 520 > 520) ns3::RipHeader (command 2 | prefix 10.0.2.0/24 Metric 16 Tag 0 Next Hop 0.0.0.0 | prefix 10.0.4.0/24 Metric 1 Tag 0 Next Hop 0.0.0.0 | prefix 10.0.5.0/24 Metric 1 Tag 0 Next Hop 0.0.0.0)
+ 0.894399 /NodeList/4/DeviceList/0/$ns3::PointToPointNetDevice/TxQueue/Enqueue ns3::PppHeader (Point-to-Point Protocol: IP (0x0021)) ns3::Ipv4Header (tos 0x0 DSCP Default ECN Not-ECT ttl 1 id 0 protocol 17 offset (bytes) 0 flags [none] length: 52 10.0.2.2 > 224.0.0.9) ns3::UdpHeader (length: 32 520 > 520) ns3::RipHeader (command 1 | prefix 0.0.0.0/0 Metric 16 Tag 0 Next Hop 0.0.0.0)
- 0.894399 /NodeList/4/DeviceList/0/$ns3::PointToPointNetDevice/TxQueue/Dequeue ns3::PppHeader (Point-to-Point Protocol: IP (0x0021)) ns3::Ipv4Header (tos 0x0 DSCP Default ECN Not-ECT ttl 1 id 0 protocol 17 offset (bytes) 0 flags [none] length: 52 10.0.2.2 > 224.0.0.9) ns3::UdpHeader (length: 32 520 > 520) ns3::RipHeader (command 1 | prefix 0.0.0.0/0 Metric 16 Tag 0 Next Hop 0.0.0.0)
+ 0.894399 /NodeList/4/DeviceList/1/$ns3::PointToPointNetDevice/TxQueue/Enqueue ns3::PppHeader (Point-to-Point Protocol: IP (0x0021)) ns3::Ipv4Header (tos 0x0 DSCP Default ECN Not-ECT ttl 1 id 0 protocol 17 offset (bytes) 0 flags [none] length: 52 10.0.4.1 > 224.0.0.9) ns3::UdpHeader (length: 32 520 > 520) ns3::RipHeader (command 1 | prefix 0.0.0.0/0 Metric 16 Tag 0 Next Hop 0.0.0.0)
- 0.894399 /NodeList/4/DeviceList/1/$ns3::PointToPointNetDevice/TxQueue/Dequeue ns3::PppHeader (Point-to-Point Protocol: IP (0x0021)) ns3::Ipv4Header (tos 0x0 DSCP Default ECN Not-ECT ttl 1 id 0 protocol 17 offset (bytes) 0 flags [none] length: 52 10.0.4.1 > 224.0.0.9) ns3::UdpHeader (length: 32 520 > 520) ns3::RipHeader (command 1 | prefix 0.0.0.0/0 Metric 16 Tag 0 Next Hop 0.0.0.0)
+ 0.894399 /NodeList/4/DeviceList/2/$ns3::PointToPointNetDevice/TxQueue/Enqueue ns3::PppHeader (Point-to-Point Protocol: IP (0x0021)) ns3::Ipv4Header (tos 0x0 DSCP Default ECN Not-ECT ttl 1 id 0 protocol 17 offset (bytes) 0 flags [none] length: 52 10.0.5.1 > 224.0.0.9) ns3::UdpHeader (length: 32 520 > 520) ns3::RipHeader (command 1 | prefix 0.0.0.0/0 Metric 16 Tag 0 Next Hop 0.0.0.0)
- 0.894399 /NodeList/4/DeviceList/2/$ns3::PointToPointNetDevice/TxQueue/Dequeue ns3::PppHeader (Point-to-Point Protocol: IP (0x0021)) ns3::Ipv4Header (tos 0x0 DSCP Default ECN Not-ECT ttl 1 id 0 protocol 17 offset (bytes) 0 flags [none] length: 52 10.0.5.1 > 224.0.0.9) ns3::UdpHeader (length: 32 520 > 520) ns3::RipHeader (command 1 | prefix 0.0.0.0/0 Metric 16 Tag 0 Next Hop 0.0.0.0)
+ 0.895589 /NodeList/7/DeviceList/0/$ns3::PointToPointNetDevice/TxQueue/Enqueue ns3::PppHeader (Point-to-Point Protocol: IP (0x0021)) ns3::Ipv4Header (tos 0x0 DSCP Default ECN Not-ECT ttl 1 id 0 protocol 17 offset (bytes) 0 flags [none] length: 52 10.0.8.2 > 224.0.0.9) ns3::UdpHeader (length: 32 520 > 520) ns3::RipHeader (command 1 | prefix 0.0.0.0/0 Metric 16 Tag 0 Next Hop 0.0.0.0)
- 0.895589 /NodeList/7/DeviceList/0/$ns3::PointToPointNetDevice/TxQueue/Dequeue ns3::PppHeader (Point-to-Point Protocol: IP (0x0021)) ns3::Ipv4Header (tos 0x0 DSCP Default ECN Not-ECT ttl 1 id 0 protocol 17 offset (bytes) 0 flags [none] length: 52 10.0.8.2 > 224.0.0.9) ns3::UdpHeader (length: 32 520 > 520) ns3::RipHeader (command 1 | prefix 0.0.0.0/0 Metric 16 Tag 0 Next Hop 0.0.0.0)
+ 0.895589 /NodeList/7/DeviceList/1/$ns3::PointToPointNetDevice/TxQueue/Enqueue ns3::PppHeader (Point-to-Point Protocol: IP (0x0021)) ns3::Ipv4Header (tos 0x0 DSCP Default ECN Not-ECT ttl 1 id 0 protocol 17 offset (bytes) 0 flags [none] length: 52 10.0.9.1 > 224.0.0.9) ns3::UdpHeader (length: 32 520 > 520) ns3::RipHeader (command 1 | prefix 0.0.0.0/0 Metric 16 Tag 0 Next Hop 0.0.0.0)
- 0.895589 /NodeList/7/DeviceList/1/$ns3::PointToPointNetDevice/TxQueue/Dequeue ns3::PppHeader (Point-to-Point Protocol: IP (0x0021)) ns3::Ipv4Header (tos 0x0 DSCP Default ECN Not-ECT ttl 1 id 0 protocol 17 offset (bytes) 0 flags [none] length: 52 10.0.9.1 > 224.0.0.9) ns3::UdpHeader (length: 32 520 > 520) ns3::RipHeader (command 1 | prefix 0.0.0.0/0 Metric 16 Tag 0 Next Hop 0.0.0.0)
r 0.896485 /NodeList/2/DeviceList/2/$ns3::PointToPointNetDevice/MacRx ns3::PppHeader (Point-to-Point Protocol: IP (0x0021)) ns3::Ipv4Header (tos 0x0 DSCP Default ECN Not-ECT ttl 1 id 0 protocol 17 offset (bytes) 0 flags [none] length: 52 10.0.2.2 > 224.0.0.9) ns3::UdpHeader (length: 32 520 > 520) ns3::RipHeader (command 1 | prefix 0.0.0.0/0 Metric 16 Tag 0 Next Hop 0.0.0.0)
+ 0.896485 /NodeList/2/DeviceList/2/$ns3::PointToPointNetDevice/TxQueue/Enqueue ns3::PppHeader (Point-to-Point Protocol: IP (0x0021)) ns3::Ipv4Header (tos 0x0 DSCP Default ECN Not-ECT ttl 255 id 0 protocol 17 offset (bytes) 0 flags [none] length: 152 10.0.2.1 > 10.0.2.2) ns3::UdpHeader (length: 132 520 > 520) ns3::RipHeader (command 2 | prefix 10.0.5.0/24 Metric 16 Tag 0 Next Hop 0.0.0.0 | prefix 10.0.4.0/24 Metric 16 Tag 0 Next Hop 0.0.0.0 | prefix 10.0.3.0/24 Metric 2 Tag 0 Next Hop 0.0.0.0 | prefix 10.0.0.0/24 Metric 1 Tag 0 Next Hop 0.0.0.0 | prefix 10.0.1.0/24 Metric 1 Tag 0 Next Hop 0.0.0.0 | prefix 10.0.2.0/24 Metric 16 Tag 0 Next Hop 0.0.0.0)
- 0.896485 /NodeList/2/DeviceList/2/$ns3::PointToPointNetDevice/TxQueue/Dequeue ns3::PppHeader (Point-to-Point Protocol: IP (0x0021)) ns3::Ipv4Header (tos 0x0 DSCP Default ECN Not-ECT ttl 255 id 0 protocol 17 offset (bytes) 0 flags [none] length: 152 10.0.2.1 > 10.0.2.2) ns3::UdpHeader (length: 132 520 > 520) ns3::RipHeader (command 2 | prefix 10.0.5.0/24 Metric 16 Tag 0 Next Hop 0.0.0.0 | prefix 10.0.4.0/24 Metric 16 Tag 0 Next Hop 0.0.0.0 | prefix 10.0.3.0/24 Metric 2 Tag 0 Next Hop 0.0.0.0 | prefix 10.0.0.0/24 Metric 1 Tag 0 Next Hop 0.0.0.0 | prefix 10.0.1.0/24 Metric 1 Tag 0 Next Hop 0.0.0.0 | prefix 10.0.2.0/24 Metric 16 Tag 0 Next Hop 0.0.0.0)
r 0.896485 /NodeList/5/DeviceList/0/$ns3::PointToPointNetDevice/MacRx ns3::PppHeader (Point-to-Point Protocol: IP (0x0021)) ns3::Ipv4Header (tos 0x0 DSCP Default ECN Not-ECT ttl 1 id 0 protocol 17 offset (bytes) 0 flags [none] length: 52 10.0.4.1 > 224.0.0.9) ns3::UdpHeader (length: 32 520 > 520) ns3::RipHeader (command 1 | prefix 0.0.0.0/0 Metric 16 Tag 0 Next Hop 0.0.0.0)
+ 0.896485 /NodeList/5/DeviceList/0/$ns3::PointToPointNetDevice/TxQueue/Enqueue ns3::PppHeader (Point-to-Point Protocol: IP (0x0021)) ns3::Ipv4Header (tos 0x0 DSCP Default ECN Not-ECT ttl 255 id 0 protocol 17 offset (bytes) 0 flags [none] length: 112 10.0.4.2 > 10.0.4.1) ns3::UdpHeader (length: 92 520 > 520) ns3::RipHeader (command 2 | prefix 10.0.4.0/24 Metric 16 Tag 0 Next Hop 0.0.0.0 | prefix 10.0.6.0/24 Metric 1 Tag 0 Next Hop 0.0.0.0 | prefix 10.0.7.0/24 Metric 1 Tag 0 Next Hop 0.0.0.0 | prefix 10.0.9.0/24 Metric 1 Tag 0 Next Hop 0.0.0.0)
- 0.896485 /NodeList/5/DeviceList/0/$ns3::PointToPointNetDevice/TxQueue/Dequeue ns3::PppHeader (Point-to-Point Protocol: IP (0x0021)) ns3::Ipv4Header (tos 0x0 DSCP Default ECN Not-ECT ttl 255 id 0 protocol 17 offset (bytes) 0 flags [none] length: 112 10.0.4.2 > 10.0.4.1) ns3::UdpHeader (length: 92 520 > 520) ns3::RipHeader (command 2 | prefix 10.0.4.0/24 Metric 16 Tag 0 Next Hop 0.0.0.0 | prefix 10.0.6.0/24 Metric 1 Tag 0 Next Hop 0.0.0.0 | prefix 10.0.7.0/24 Metric 1 Tag 0 Next Hop 0.0.0.0 | prefix 10.0.9.0/24 Metric 1 Tag 0 Next Hop 0.0.0.0)
r 0.896485 /NodeList/6/DeviceList/1/$ns3::PointToPointNetDevice/MacRx ns3::PppHeader (Point-to-Point Protocol: IP (0x0021)) ns3::Ipv4Header (tos 0x0 DSCP Default ECN Not-ECT ttl 1 id 0 protocol 17 offset (bytes) 0 flags [none] length: 52 10.0.5.1 > 224.0.0.9) ns3::UdpHeader (length: 32 520 > 520) ns3::RipHeader (command 1 | prefix 0.0.0.0/0 Metric 16 Tag 0 Next Hop 0.0.0.0)
+ 0.896485 /NodeList/6/DeviceList/1/$ns3::PointToPointNetDevice/TxQueue/Enqueue ns3::PppHeader (Point-to-Point Protocol: IP (0x0021)) ns3::Ipv4Header (tos 0x0 DSCP Default ECN Not-ECT ttl 255 id 0 protocol 17 offset (bytes) 0 flags [none] length: 212 10.0.5.2 > 10.0.5.1) ns3::UdpHeader (length: 192 520 > 520) ns3::RipHeader (command 2 | prefix 10.0.6.0/24 Metric 2 Tag 0 Next Hop 0.0.0.0 | prefix 10.0.4.0/24 Metric 16 Tag 0 Next Hop 0.0.0.0 | prefix 10.0.2.0/24 Metric 16 Tag 0 Next Hop 0.0.0.0 | prefix 10.0.9.0/24 Metric 2 Tag 0 Next Hop 0.0.0.0 | prefix 10.0.1.0/24 Metric 2 Tag 0 Next Hop 0.0.0.0 | prefix 10.0.3.0/24 Metric 1 Tag 0 Next Hop 0.0.0.0 | prefix 10.0.5.0/24 Metric 16 Tag 0 Next Hop 0.0.0.0 | prefix 10.0.7.0/24 Metric 1 Tag 0 Next Hop 0.0.0.0 | prefix 10.0.8.0/24 Metric 1 Tag 0 Next Hop 0.0.0.0)
- 0.896485 /NodeList/6/DeviceList/1/$ns3::PointToPointNetDevice/TxQueue/Dequeue ns3::PppHeader (Point-to-Point Protocol: IP (0x0021)) ns3::Ipv4Header (tos 0x0 DSCP Default ECN Not-ECT ttl 255 id 0 protocol 17 offset (bytes) 0 flags [none] length: 212 10.0.5.2 > 10.0.5.1) ns3::UdpHeader (length: 192 520 > 520) ns3::RipHeader (command 2 | prefix 10.0.6.0/24 Metric 2 Tag 0 Next Hop 0.0.0.0 | prefix 10.0.4.0/24 Metric 16 Tag 0 Next Hop 0.0.0.0 | prefix 10.0.2.0/24 Metric 16 Tag 0 Next Hop 0.0.0.0 | prefix 10.0.9.0/24 Metric 2 Tag 0 Next Hop 0.0.0.0 | prefix 10.0.1.0/24 Metric 2 Tag 0 Next Hop 0.0.0.0 | prefix 10.0.3.0/24 Metric 1 Tag 0 Next Hop 0.0.0.0 | prefix 10.0.5.0/24 Metric 16 Tag 0 Next Hop 0.0.0.0 | prefix 10.0.7.0/24 Metric 1 Tag 0 Next Hop 0.0.0.0 | prefix 10.0.8.0/24 Metric 1 Tag 0 Next Hop 0.0.0.0)
r 0.897675 /NodeList/6/DeviceList/3/$ns3::PointToPointNetDevice/MacRx ns3::PppHeader (Point-to-Point Protocol: IP (0x0021)) ns3::Ipv4Header (tos 0x0 DSCP Default ECN Not-ECT ttl 1 id 0 protocol 17 offset (bytes) 0 flags [none] length: 52 10.0.8.2 > 224.0.0.9) ns3::UdpHeader (length: 32 520 > 520) ns3::RipHeader (command 1 | prefix 0.0.0.0/0 Metric 16 Tag 0 Next Hop 0.0.0.0)
+ 0.897675 /NodeList/6/DeviceList/3/$ns3::PointToPointNetDevice/TxQueue/Enqueue ns3::PppHeader (Point-to-Point Protocol: IP (0x0021)) ns3::Ipv4Header (tos 0x0 DSCP Default ECN Not-ECT ttl 255 id 0 protocol 17 offset (bytes) 0 flags [none] length: 212 10.0.8.1 > 10.0.8.2) ns3::UdpHeader (length: 192 520 > 520) ns3::RipHeader (command 2 | prefix 10.0.6.0/24 Metric 2 Tag 0 Next Hop 0.0.0.0 | prefix 10.0.4.0/24 Metric 2 Tag 0 Next Hop 0.0.0.0 | prefix 10.0.2.0/24 Metric 2 Tag 0 Next Hop 0.0.0.0 | prefix 10.0.9.0/24 Metric 16 Tag 0 Next Hop 0.0.0.0 | prefix 10.0.1.0/24 Metric 2 Tag 0 Next Hop 0.0.0.0 | prefix 10.0.3.0/24 Metric 1 Tag 0 Next Hop 0.0.0.0 | prefix 10.0.5.0/24 Metric 1 Tag 0 Next Hop 0.0.0.0 | prefix 10.0.7.0/24 Metric 1 Tag 0 Next Hop 0.0.0.0 | prefix 10.0.8.0/24 Metric 16 Tag 0 Next Hop 0.0.0.0)
- 0.897675 /NodeList/6/DeviceList/3/$ns3::PointToPointNetDevice/TxQueue/Dequeue ns3::PppHeader (Point-to-Point Protocol: IP (0x0021)) ns3::Ipv4Header (tos 0x0 DSCP Default ECN Not-ECT ttl 255 id 0 protocol 17 offset (bytes) 0 flags [none] length: 212 10.0.8.1 > 10.0.8.2) ns3::UdpHeader (length: 192 520 > 520) ns3::RipHeader (command 2 | prefix 10.0.6.0/24 Metric 2 Tag 0 Next Hop 0.0.0.0 | prefix 10.0.4.0/24 Metric 2 Tag 0 Next Hop 0.0.0.0 | prefix 10.0.2.0/24 Metric 2 Tag 0 Next Hop 0.0.0.0 | prefix 10.0.9.0/24 Metric 16 Tag 0 Next Hop 0.0.0.0 | prefix 10.0.1.0/24 Metric 2 Tag 0 Next Hop 0.0.0.0 | prefix 10.0.3.0/24 Metric 1 Tag 0 Next Hop 0.0.0.0 | prefix 10.0.5.0/24 Metric 1 Tag 0 Next Hop 0.0.0.0 | prefix 10.0.7.0/24 Metric 1 Tag 0 Next Hop 0.0.0.0 | prefix 10.0.8.0/24 Metric 16 Tag 0 Next Hop 0.0.0.0)
r 0.897675 /NodeList/5/DeviceList/3/$ns3::PointToPointNetDevice/MacRx ns3::PppHeader (Point-to-Point Protocol: IP (0x0021)) ns3::Ipv4Header (tos 0x0 DSCP Default ECN Not-ECT ttl 1 id 0 protocol 17 offset (bytes) 0 flags [none] length: 52 10.0.9.1 > 224.0.0.9) ns3::UdpHeader (length: 32 520 > 520) ns3::RipHeader (command 1 | prefix 0.0.0.0/0 Metric 16 Tag 0 Next Hop 0.0.0.0)
+ 0.897675 /NodeList/5/DeviceList/3/$ns3::PointToPointNetDevice/TxQueue/Enqueue ns3::PppHeader (Point-to-Point Protocol: IP (0x0021)) ns3::Ipv4Header (tos 0x0 DSCP Default ECN Not-ECT ttl 255 id 0 protocol 17 offset (bytes) 0 flags [none] length: 112 10.0.9.2 > 10.0.9.1) ns3::UdpHeader (length: 92 520 > 520) ns3::RipHeader (command 2 | prefix 10.0.4.0/24 Metric 1 Tag 0 Next Hop 0.0.0.0 | prefix 10.0.6.0/24 Metric 1 Tag 0 Next Hop 0.0.0.0 | prefix 10.0.7.0/24 Metric 1 Tag 0 Next Hop 0.0.0.0 | prefix 10.0.9.0/24 Metric 16 Tag 0 Next Hop 0.0.0.0)
- 0.897675 /NodeList/5/DeviceList/3/$ns3::PointToPointNetDevice/TxQueue/Dequeue ns3::PppHeader (Point-to-Point Protocol: IP (0x0021)) ns3::Ipv4Header (tos 0x0 DSCP Default ECN Not-ECT ttl 255 id 0 protocol 17 offset (bytes) 0 flags [none] length: 112 10.0.9.2 > 10.0.9.1) ns3::UdpHeader (length: 92 520 > 520) ns3::RipHeader (command 2 | prefix 10.0.4.0/24 Metric 1 Tag 0 Next Hop 0.0.0.0 | prefix 10.0.6.0/24 Metric 1 Tag 0 Next Hop 0.0.0.0 | prefix 10.0.7.0/24 Metric 1 Tag 0 Next Hop 0.0.0.0 | prefix 10.0.9.0/24 Metric 16 Tag 0 Next Hop 0.0.0.0)
r 0.898667 /NodeList/4/DeviceList/1/$ns3::PointToPointNetDevice/MacRx ns3::PppHeader (Point-to-Point Protocol: IP (0x0021)) ns3::Ipv4Header (tos 0x0 DSCP Default ECN Not-ECT ttl 255 id 0 protocol 17 offset (bytes) 0 flags [none] length: 112 10.0.4.2 > 10.0.4.1) ns3::UdpHeader (length: 92 520 > 520) ns3::RipHeader (command 2 | prefix 10.0.4.0/24 Metric 16 Tag 0 Next Hop 0.0.0.0 | prefix 10.0.6.0/24 Metric 1 Tag 0 Next Hop 0.0.0.0 | prefix 10.0.7.0/24 Metric 1 Tag 0 Next Hop 0.0.0.0 | prefix 10.0.9.0/24 Metric 1 Tag 0 Next Hop 0.0.0.0)