M 0.00000 0 (112.00, 120.00, 0.00), (19.00, 376.00), 13.00
M 0.00000 9 (587.00, 615.00, 0.00), (642.00, 400.00), 13.00
s 0.000000000 _0_ AGT  --- 0 cbr 1000 [0 0 0 0] ------- [0:0 9:0 32 0] [0] 0 0
r 0.000000000 _0_ RTR  --- 0 cbr 1000 [0 0 0 0] ------- [0:0 9:0 32 0] [0] 0 0
s 0.000000000 _0_ AGT  --- 1 cbr 24 [0 0 0 0] ------- [0:0 9:0 32 0] [1] 0 0
r 0.000000000 _0_ RTR  --- 1 cbr 24 [0 0 0 0] ------- [0:0 9:0 32 0] [1] 0 0
s 0.003769945 _0_ RTR  --- 2 message 32 [0 0 0 0] ------- [0:255 -1:255 32 0] 
s 0.003884945 _0_ MAC  --- 2 message 90 [0 ffffffff 0 800] ------- [0:255 -1:255 32 0] 
r 0.004605478 _1_ MAC  --- 2 message 32 [0 ffffffff 0 800] ------- [0:255 -1:255 32 0] 
r 0.004605536 _2_ MAC  --- 2 message 32 [0 ffffffff 0 800] ------- [0:255 -1:255 32 0] 
r 0.004630478 _1_ RTR  --- 2 message 32 [0 ffffffff 0 800] ------- [0:255 -1:255 32 0] 
r 0.004630536 _2_ RTR  --- 2 message 32 [0 ffffffff 0 800] ------- [0:255 -1:255 32 0] 
s 0.034809998 _2_ RTR  --- 3 message 32 [0 0 0 0] ------- [2:255 -1:255 32 0] 
s 0.035124998 _2_ MAC  --- 3 message 90 [0 ffffffff 2 800] ------- [2:255 -1:255 32 0] 
r 0.035845492 _1_ MAC  --- 3 message 32 [0 ffffffff 2 800] ------- [2:255 -1:255 32 0] 
r 0.035845542 _3_ MAC  --- 3 message 32 [0 ffffffff 2 800] ------- [2:255 -1:255 32 0] 
r 0.035845588 _0_ MAC  --- 3 message 32 [0 ffffffff 2 800] ------- [2:255 -1:255 32 0] 
r 0.035870492 _1_ RTR  --- 3 message 32 [0 ffffffff 2 800] ------- [2:255 -1:255 32 0] 
r 0.035870542 _3_ RTR  --- 3 message 32 [0 ffffffff 2 800] ------- [2:255 -1:255 32 0] 
r 0.035870588 _0_ RTR  --- 3 message 32 [0 ffffffff 2 800] ------- [2:255 -1:255 32 0] 
s 0.040000000 _0_ AGT  --- 4 cbr 1000 [0 0 0 0] ------- [0:0 9:0 32 0] [2] 0 0
r 0.040000000 _0_ RTR  --- 4 cbr 1000 [0 0 0 0] ------- [0:0 9:0 32 0] [2] 0 0
s 0.040000000 _0_ AGT  --- 5 cbr 24 [0 0 0 0] ------- [0:0 9:0 32 0] [3] 0 0
r 0.040000000 _0_ RTR  --- 5 cbr 24 [0 0 0 0] ------- [0:0 9:0 32 0] [3] 0 0
s 0.080000000 _0_ AGT  --- 6 cbr 1000 [0 0 0 0] ------- [0:0 9:0 32 0] [4] 0 0
r 0.080000000 _0_ RTR  --- 6 cbr 1000 [0 0 0 0] ------- [0:0 9:0 32 0] [4] 0 0
s 0.080000000 _0_ AGT  --- 7 cbr 24 [0 0 0 0] ------- [0:0 9:0 32 0] [5] 0 0
r 0.080000000 _0_ RTR  --- 7 cbr 24 [0 0 0 0] ------- [0:0 9:0 32 0] [5] 0 0
D 0.080000000 _0_ RTR  IFQ 0 cbr 1020 [0 0 0 0] ------- [0:0 9:0 32 0] [0] 0 0
s 0.120000000 _0_ AGT  --- 8 cbr 1000 [0 0 0 0] ------- [0:0 9:0 32 0] [6] 0 0
r 0.120000000 _0_ RTR  --- 8 cbr 1000 [0 0 0 0] ------- [0:0 9:0 32 0] [6] 0 0
D 0.120000000 _0_ RTR  IFQ 1 cbr 44 [0 0 0 0] ------- [0:0 9:0 32 0] [1] 0 0
s 0.120000000 _0_ AGT  --- 9 cbr 24 [0 0 0 0] ------- [0:0 9:0 32 0] [7] 0 0
r 0.120000000 _0_ RTR  --- 9 cbr 24 [0 0 0 0] ------- [0:0 9:0 32 0] [7] 0 0
D 0.120000000 _0_ RTR  IFQ 4 cbr 1020 [0 0 0 0] ------- [0:0 9:0 32 0] [2] 0 0
s 0.160000000 _0_ AGT  --- 10 cbr 1000 [0 0 0 0] ------- [0:0 9:0 32 0] [8] 0 0
r 0.160000000 _0_ RTR  --- 10 cbr 1000 [0 0 0 0] ------- [0:0 9:0 32 0] [8] 0 0
D 0.160000000 _0_ RTR  IFQ 5 cbr 44 [0 0 0 0] ------- [0:0 9:0 32 0] [3] 0 0
s 0.160000000 _0_ AGT  --- 11 cbr 24 [0 0 0 0] ------- [0:0 9:0 32 0] [9] 0 0
r 0.160000000 _0_ RTR  --- 11 cbr 24 [0 0 0 0] ------- [0:0 9:0 32 0] [9] 0 0
D 0.160000000 _0_ RTR  IFQ 6 cbr 1020 [0 0 0 0] ------- [0:0 9:0 32 0] [4] 0 0
s 0.177993395 _3_ RTR  --- 12 message 32 [0 0 0 0] ------- [3:255 -1:255 32 0] 
s 0.178388395 _3_ MAC  --- 12 message 90 [0 ffffffff 3 800] ------- [3:255 -1:255 32 0] 
r 0.179108939 _2_ MAC  --- 12 message 32 [0 ffffffff 3 800] ------- [3:255 -1:255 32 0] 
r 0.179109011 _6_ MAC  --- 12 message 32 [0 ffffffff 3 800] ------- [3:255 -1:255 32 0] 
r 0.179133939 _2_ RTR  --- 12 message 32 [0 ffffffff 3 800] ------- [3:255 -1:255 32 0] 
r 0.179134011 _6_ RTR  --- 12 message 32 [0 ffffffff 3 800] ------- [3:255 -1:255 32 0] 
s 0.200000000 _0_ AGT  --- 13 cbr 1000 [0 0 0 0] ------- [0:0 9:0 32 0] [10] 0 0
r 0.200000000 _0_ RTR  --- 13 cbr 1000 [0 0 0 0] ------- [0:0 9:0 32 0] [10] 0 0
D 0.200000000 _0_ RTR  IFQ 7 cbr 44 [0 0 0 0] ------- [0:0 9:0 32 0] [5] 0 0
s 0.200000000 _0_ AGT  --- 14 cbr 24 [0 0 0 0] ------- [0:0 9:0 32 0] [11] 0 0
r 0.200000000 _0_ RTR  --- 14 cbr 24 [0 0 0 0] ------- [0:0 9:0 32 0] [11] 0 0
D 0.200000000 _0_ RTR  IFQ 8 cbr 1020 [0 0 0 0] ------- [0:0 9:0 32 0] [6] 0 0
s 0.240000000 _0_ AGT  --- 15 cbr 1000 [0 0 0 0] ------- [0:0 9:0 32 0] [12] 0 0
r 0.240000000 _0_ RTR  --- 15 cbr 1000 [0 0 0 0] ------- [0:0 9:0 32 0] [12] 0 0
D 0.240000000 _0_ RTR  IFQ 9 cbr 44 [0 0 0 0] ------- [0:0 9:0 32 0] [7] 0 0
s 0.240000000 _0_ AGT  --- 16 cbr 24 [0 0 0 0] ------- [0:0 9:0 32 0] [13] 0 0
r 0.240000000 _0_ RTR  --- 16 cbr 24 [0 0 0 0] ------- [0:0 9:0 32 0] [13] 0 0
D 0.240000000 _0_ RTR  IFQ 10 cbr 1020 [0 0 0 0] ------- [0:0 9:0 32 0] [8] 0 0
s 0.280000000 _0_ AGT  --- 17 cbr 1000 [0 0 0 0] ------- [0:0 9:0 32 0] [14] 0 0
r 0.280000000 _0_ RTR  --- 17 cbr 1000 [0 0 0 0] ------- [0:0 9:0 32 0] [14] 0 0
D 0.280000000 _0_ RTR  IFQ 11 cbr 44 [0 0 0 0] ------- [0:0 9:0 32 0] [9] 0 0
s 0.280000000 _0_ AGT  --- 18 cbr 24 [0 0 0 0] ------- [0:0 9:0 32 0] [15] 0 0
r 0.280000000 _0_ RTR  --- 18 cbr 24 [0 0 0 0] ------- [0:0 9:0 32 0] [15] 0 0
D 0.280000000 _0_ RTR  IFQ 13 cbr 1020 [0 0 0 0] ------- [0:0 9:0 32 0] [10] 0 0
s 0.320000000 _0_ AGT  --- 19 cbr 1000 [0 0 0 0] ------- [0:0 9:0 32 0] [16] 0 0
r 0.320000000 _0_ RTR  --- 19 cbr 1000 [0 0 0 0] ------- [0:0 9:0 32 0] [16] 0 0
D 0.320000000 _0_ RTR  IFQ 14 cbr 44 [0 0 0 0] ------- [0:0 9:0 32 0] [11] 0 0
s 0.320000000 _0_ AGT  --- 20 cbr 24 [0 0 0 0] ------- [0:0 9:0 32 0] [17] 0 0
r 0.320000000 _0_ RTR  --- 20 cbr 24 [0 0 0 0] ------- [0:0 9:0 32 0] [17] 0 0
D 0.320000000 _0_ RTR  IFQ 15 cbr 1020 [0 0 0 0] ------- [0:0 9:0 32 0] [12] 0 0
s 0.360000000 _0_ AGT  --- 21 cbr 1000 [0 0 0 0] ------- [0:0 9:0 32 0] [18] 0 0
r 0.360000000 _0_ RTR  --- 21 cbr 1000 [0 0 0 0] ------- [0:0 9:0 32 0] [18] 0 0
D 0.360000000 _0_ RTR  IFQ 16 cbr 44 [0 0 0 0] ------- [0:0 9:0 32 0] [13] 0 0
s 0.360000000 _0_ AGT  --- 22 cbr 24 [0 0 0 0] ------- [0:0 9:0 32 0] [19] 0 0
r 0.360000000 _0_ RTR  --- 22 cbr 24 [0 0 0 0] ------- [0:0 9:0 32 0] [19] 0 0
D 0.360000000 _0_ RTR  IFQ 17 cbr 1020 [0 0 0 0] ------- [0:0 9:0 32 0] [14] 0 0
s 0.400000000 _0_ AGT  --- 23 cbr 1000 [0 0 0 0] ------- [0:0 9:0 32 0] [20] 0 0
r 0.400000000 _0_ RTR  --- 23 cbr 1000 [0 0 0 0] ------- [0:0 9:0 32 0] [20] 0 0
D 0.400000000 _0_ RTR  IFQ 18 cbr 44 [0 0 0 0] ------- [0:0 9:0 32 0] [15] 0 0
s 0.400000000 _0_ AGT  --- 24 cbr 24 [0 0 0 0] ------- [0:0 9:0 32 0] [21] 0 0
r 0.400000000 _0_ RTR  --- 24 cbr 24 [0 0 0 0] ------- [0:0 9:0 32 0] [21] 0 0
D 0.400000000 _0_ RTR  IFQ 19 cbr 1020 [0 0 0 0] ------- [0:0 9:0 32 0] [16] 0 0
s 0.440000000 _0_ AGT  --- 25 cbr 1000 [0 0 0 0] ------- [0:0 9:0 32 0] [22] 0 0
r 0.440000000 _0_ RTR  --- 25 cbr 1000 [0 0 0 0] ------- [0:0 9:0 32 0] [22] 0 0
D 0.440000000 _0_ RTR  IFQ 20 cbr 44 [0 0 0 0] ------- [0:0 9:0 32 0] [17] 0 0
s 0.440000000 _0_ AGT  --- 26 cbr 24 [0 0 0 0] ------- [0:0 9:0 32 0] [23] 0 0
r 0.440000000 _0_ RTR  --- 26 cbr 24 [0 0 0 0] ------- [0:0 9:0 32 0] [23] 0 0
D 0.440000000 _0_ RTR  IFQ 21 cbr 1020 [0 0 0 0] ------- [0:0 9:0 32 0] [18] 0 0
s 0.471784383 _8_ RTR  --- 27 message 32 [0 0 0 0] ------- [8:255 -1:255 32 0] 
s 0.472099383 _8_ MAC  --- 27 message 90 [0 ffffffff 8 800] ------- [8:255 -1:255 32 0] 
r 0.472819881 _1_ MAC  --- 27 message 32 [0 ffffffff 8 800] ------- [8:255 -1:255 32 0] 
r 0.472819930 _7_ MAC  --- 27 message 32 [0 ffffffff 8 800] ------- [8:255 -1:255 32 0] 
r 0.472819996 _4_ MAC  --- 27 message 32 [0 ffffffff 8 800] ------- [8:255 -1:255 32 0] 
r 0.472844881 _1_ RTR  --- 27 message 32 [0 ffffffff 8 800] ------- [8:255 -1:255 32 0] 
r 0.472844930 _7_ RTR  --- 27 message 32 [0 ffffffff 8 800] ------- [8:255 -1:255 32 0] 
r 0.472844996 _4_ RTR  --- 27 message 32 [0 ffffffff 8 800] ------- [8:255 -1:255 32 0] 
s 0.480000000 _0_ AGT  --- 28 cbr 1000 [0 0 0 0] ------- [0:0 9:0 32 0] [24] 0 0
r 0.480000000 _0_ RTR  --- 28 cbr 1000 [0 0 0 0] ------- [0:0 9:0 32 0] [24] 0 0
D 0.480000000 _0_ RTR  IFQ 22 cbr 44 [0 0 0 0] ------- [0:0 9:0 32 0] [19] 0 0
s 0.480000000 _0_ AGT  --- 29 cbr 24 [0 0 0 0] ------- [0:0 9:0 32 0] [25] 0 0
r 0.480000000 _0_ RTR  --- 29 cbr 24 [0 0 0 0] ------- [0:0 9:0 32 0] [25] 0 0
D 0.480000000 _0_ RTR  IFQ 23 cbr 1020 [0 0 0 0] ------- [0:0 9:0 32 0] [20] 0 0
s 0.520000000 _0_ AGT  --- 30 cbr 1000 [0 0 0 0] ------- [0:0 9:0 32 0] [26] 0 0
r 0.520000000 _0_ RTR  --- 30 cbr 1000 [0 0 0 0] ------- [0:0 9:0 32 0] [26] 0 0
D 0.520000000 _0_ RTR  IFQ 24 cbr 44 [0 0 0 0] ------- [0:0 9:0 32 0] [21] 0 0
s 0.520000000 _0_ AGT  --- 31 cbr 24 [0 0 0 0] ------- [0:0 9:0 32 0] [27] 0 0
r 0.520000000 _0_ RTR  --- 31 cbr 24 [0 0 0 0] ------- [0:0 9:0 32 0] [27] 0 0
D 0.520000000 _0_ RTR  IFQ 25 cbr 1020 [0 0 0 0] ------- [0:0 9:0 32 0] [22] 0 0
s 0.560000000 _0_ AGT  --- 32 cbr 1000 [0 0 0 0] ------- [0:0 9:0 32 0] [28] 0 0
r 0.560000000 _0_ RTR  --- 32 cbr 1000 [0 0 0 0] ------- [0:0 9:0 32 0] [28] 0 0
D 0.560000000 _0_ RTR  IFQ 26 cbr 44 [0 0 0 0] ------- [0:0 9:0 32 0] [23] 0 0
s 0.560000000 _0_ AGT  --- 33 cbr 24 [0 0 0 0] ------- [0:0 9:0 32 0] [29] 0 0
r 0.560000000 _0_ RTR  --- 33 cbr 24 [0 0 0 0] ------- [0:0 9:0 32 0] [29] 0 0
D 0.560000000 _0_ RTR  IFQ 28 cbr 1020 [0 0 0 0] ------- [0:0 9:0 32 0] [24] 0 0
s 0.600000000 _0_ AGT  --- 34 cbr 1000 [0 0 0 0] ------- [0:0 9:0 32 0] [30] 0 0
r 0.600000000 _0_ RTR  --- 34 cbr 1000 [0 0 0 0] ------- [0:0 9:0 32 0] [30] 0 0
D 0.600000000 _0_ RTR  IFQ 29 cbr 44 [0 0 0 0] ------- [0:0 9:0 32 0] [25] 0 0
s 0.600000000 _0_ AGT  --- 35 cbr 24 [0 0 0 0] ------- [0:0 9:0 32 0] [31] 0 0
r 0.600000000 _0_ RTR  --- 35 cbr 24 [0 0 0 0] ------- [0:0 9:0 32 0] [31] 0 0
D 0.600000000 _0_ RTR  IFQ 30 cbr 1020 [0 0 0 0] ------- [0:0 9:0 32 0] [26] 0 0
s 0.632846612 _6_ RTR  --- 36 message 32 [0 0 0 0] ------- [6:255 -1:255 32 0] 
s 0.633321612 _6_ MAC  --- 36 message 90 [0 ffffffff 6 800] ------- [6:255 -1:255 32 0] 
r 0.634042174 _5_ MAC  --- 36 message 32 [0 ffffffff 6 800] ------- [6:255 -1:255 32 0] 
r 0.634042227 _3_ MAC  --- 36 message 32 [0 ffffffff 6 800] ------- [6:255 -1:255 32 0] 
r 0.634067174 _5_ RTR  --- 36 message 32 [0 ffffffff 6 800] ------- [6:255 -1:255 32 0] 
r 0.634067227 _3_ RTR  --- 36 message 32 [0 ffffffff 6 800] ------- [6:255 -1:255 32 0] 
s 0.640000000 _0_ AGT  --- 37 cbr 1000 [0 0 0 0] ------- [0:0 9:0 32 0] [32] 0 0
r 0.640000000 _0_ RTR  --- 37 cbr 1000 [0 0 0 0] ------- [0:0 9:0 32 0] [32] 0 0
D 0.640000000 _0_ RTR  IFQ 31 cbr 44 [0 0 0 0] ------- [0:0 9:0 32 0] [27] 0 0
s 0.640000000 _0_ AGT  --- 38 cbr 24 [0 0 0 0] ------- [0:0 9:0 32 0] [33] 0 0
r 0.640000000 _0_ RTR  --- 38 cbr 24 [0 0 0 0] ------- [0:0 9:0 32 0] [33] 0 0
D 0.640000000 _0_ RTR  IFQ 32 cbr 1020 [0 0 0 0] ------- [0:0 9:0 32 0] [28] 0 0
s 0.680000000 _0_ AGT  --- 39 cbr 1000 [0 0 0 0] ------- [0:0 9:0 32 0] [34] 0 0
r 0.680000000 _0_ RTR  --- 39 cbr 1000 [0 0 0 0] ------- [0:0 9:0 32 0] [34] 0 0
D 0.680000000 _0_ RTR  IFQ 33 cbr 44 [0 0 0 0] ------- [0:0 9:0 32 0] [29] 0 0
s 0.680000000 _0_ AGT  --- 40 cbr 24 [0 0 0 0] ------- [0:0 9:0 32 0] [35] 0 0
r 0.680000000 _0_ RTR  --- 40 cbr 24 [0 0 0 0] ------- [0:0 9:0 32 0] [35] 0 0
D 0.680000000 _0_ RTR  IFQ 34 cbr 1020 [0 0 0 0] ------- [0:0 9:0 32 0] [30] 0 0
s 0.720000000 _0_ AGT  --- 41 cbr 1000 [0 0 0 0] ------- [0:0 9:0 32 0] [36] 0 0
r 0.720000000 _0_ RTR  --- 41 cbr 1000 [0 0 0 0] ------- [0:0 9:0 32 0] [36] 0 0
D 0.720000000 _0_ RTR  IFQ 35 cbr 44 [0 0 0 0] ------- [0:0 9:0 32 0] [31] 0 0
s 0.720000000 _0_ AGT  --- 42 cbr 24 [0 0 0 0] ------- [0:0 9:0 32 0] [37] 0 0
r 0.720000000 _0_ RTR  --- 42 cbr 24 [0 0 0 0] ------- [0:0 9:0 32 0] [37] 0 0
D 0.720000000 _0_ RTR  IFQ 37 cbr 1020 [0 0 0 0] ------- [0:0 9:0 32 0] [32] 0 0
s 0.760000000 _0_ AGT  --- 43 cbr 1000 [0 0 0 0] ------- [0:0 9:0 32 0] [38] 0 0
r 0.760000000 _0_ RTR  --- 43 cbr 1000 [0 0 0 0] ------- [0:0 9:0 32 0] [38] 0 0
D 0.760000000 _0_ RTR  IFQ 38 cbr 44 [0 0 0 0] ------- [0:0 9:0 32 0] [33] 0 0
s 0.760000000 _0_ AGT  --- 44 cbr 24 [0 0 0 0] ------- [0:0 9:0 32 0] [39] 0 0
r 0.760000000 _0_ RTR  --- 44 cbr 24 [0 0 0 0] ------- [0:0 9:0 32 0] [39] 0 0
D 0.760000000 _0_ RTR  IFQ 39 cbr 1020 [0 0 0 0] ------- [0:0 9:0 32 0] [34] 0 0
s 0.800000000 _0_ AGT  --- 45 cbr 1000 [0 0 0 0] ------- [0:0 9:0 32 0] [40] 0 0
r 0.800000000 _0_ RTR  --- 45 cbr 1000 [0 0 0 0] ------- [0:0 9:0 32 0] [40] 0 0
D 0.800000000 _0_ RTR  IFQ 40 cbr 44 [0 0 0 0] ------- [0:0 9:0 32 0] [35] 0 0
s 0.800000000 _0_ AGT  --- 46 cbr 24 [0 0 0 0] ------- [0:0 9:0 32 0] [41] 0 0
r 0.800000000 _0_ RTR  --- 46 cbr 24 [0 0 0 0] ------- [0:0 9:0 32 0] [41] 0 0
D 0.800000000 _0_ RTR  IFQ 41 cbr 1020 [0 0 0 0] ------- [0:0 9:0 32 0] [36] 0 0
s 0.840000000 _0_ AGT  --- 47 cbr 1000 [0 0 0 0] ------- [0:0 9:0 32 0] [42] 0 0
r 0.840000000 _0_ RTR  --- 47 cbr 1000 [0 0 0 0] ------- [0:0 9:0 32 0] [42] 0 0
D 0.840000000 _0_ RTR  IFQ 42 cbr 44 [0 0 0 0] ------- [0:0 9:0 32 0] [37] 0 0
s 0.840000000 _0_ AGT  --- 48 cbr 24 [0 0 0 0] ------- [0:0 9:0 32 0] [43] 0 0
r 0.840000000 _0_ RTR  --- 48 cbr 24 [0 0 0 0] ------- [0:0 9:0 32 0] [43] 0 0
D 0.840000000 _0_ RTR  IFQ 43 cbr 1020 [0 0 0 0] ------- [0:0 9:0 32 0] [38] 0 0
s 0.880000000 _0_ AGT  --- 49 cbr 1000 [0 0 0 0] ------- [0:0 9:0 32 0] [44] 0 0
r 0.880000000 _0_ RTR  --- 49 cbr 1000 [0 0 0 0] ------- [0:0 9:0 32 0] [44] 0 0
D 0.880000000 _0_ RTR  IFQ 44 cbr 44 [0 0 0 0] ------- [0:0 9:0 32 0] [39] 0 0
s 0.880000000 _0_ AGT  --- 50 cbr 24 [0 0 0 0] ------- [0:0 9:0 32 0] [45] 0 0
r 0.880000000 _0_ RTR  --- 50 cbr 24 [0 0 0 0] ------- [0:0 9:0 32 0] [45] 0 0
D 0.880000000 _0_ RTR  IFQ 45 cbr 1020 [0 0 0 0] ------- [0:0 9:0 32 0] [40] 0 0
s 0.884759020 _4_ RTR  --- 51 message 32 [0 0 0 0] ------- [4:255 -1:255 32 0] 
s 0.885134020 _4_ MAC  --- 51 message 90 [0 ffffffff 4 800] ------- [4:255 -1:255 32 0] 
r 0.885854633 _8_ MAC  --- 51 message 32 [0 ffffffff 4 800] ------- [4:255 -1:255 32 0] 
r 0.885854644 _5_ MAC  --- 51 message 32 [0 ffffffff 4 800] ------- [4:255 -1:255 32 0] 
r 0.885854723 _1_ MAC  --- 51 message 32 [0 ffffffff 4 800] ------- [4:255 -1:255 32 0] 
r 0.885879633 _8_ RTR  --- 51 message 32 [0 ffffffff 4 800] ------- [4:255 -1:255 32 0] 
r 0.885879644 _5_ RTR  --- 51 message 32 [0 ffffffff 4 800] ------- [4:255 -1:255 32 0] 
r 0.885879723 _1_ RTR  --- 51 message 32 [0 ffffffff 4 800] ------- [4:255 -1:255 32 0] 
s 0.920000000 _0_ AGT  --- 52 cbr 1000 [0 0 0 0] ------- [0:0 9:0 32 0] [46] 0 0
r 0.920000000 _0_ RTR  --- 52 cbr 1000 [0 0 0 0] ------- [0:0 9:0 32 0] [46] 0 0
D 0.920000000 _0_ RTR  IFQ 46 cbr 44 [0 0 0 0] ------- [0:0 9:0 32 0] [41] 0 0
s 0.920000000 _0_ AGT  --- 53 cbr 24 [0 0 0 0] ------- [0:0 9:0 32 0] [47] 0 0
r 0.920000000 _0_ RTR  --- 53 cbr 24 [0 0 0 0] ------- [0:0 9:0 32 0] [47] 0 0
D 0.920000000 _0_ RTR  IFQ 47 cbr 1020 [0 0 0 0] ------- [0:0 9:0 32 0] [42] 0 0
s 0.960000000 _0_ AGT  --- 54 cbr 1000 [0 0 0 0] ------- [0:0 9:0 32 0] [48] 0 0
r 0.960000000 _0_ RTR  --- 54 cbr 1000 [0 0 0 0] ------- [0:0 9:0 32 0] [48] 0 0
D 0.960000000 _0_ RTR  IFQ 48 cbr 44 [0 0 0 0] ------- [0:0 9:0 32 0] [43] 0 0
s 0.960000000 _0_ AGT  --- 55 cbr 24 [0 0 0 0] ------- [0:0 9:0 32 0] [49] 0 0
r 0.960000000 _0_ RTR  --- 55 cbr 24 [0 0 0 0] ------- [0:0 9:0 32 0] [49] 0 0
D 0.960000000 _0_ RTR  IFQ 49 cbr 1020 [0 0 0 0] ------- [0:0 9:0 32 0] [44] 0 0
s 1.000000000 _0_ AGT  --- 56 cbr 1000 [0 0 0 0] ------- [0:0 9:0 32 0] [50] 0 0
r 1.000000000 _0_ RTR  --- 56 cbr 1000 [0 0 0 0] ------- [0:0 9:0 32 0] [50] 0 0
D 1.000000000 _0_ RTR  IFQ 50 cbr 44 [0 0 0 0] ------- [0:0 9:0 32 0] [45] 0 0
s 1.000000000 _0_ AGT  --- 57 cbr 24 [0 0 0 0] ------- [0:0 9:0 32 0] [51] 0 0
r 1.000000000 _0_ RTR  --- 57 cbr 24 [0 0 0 0] ------- [0:0 9:0 32 0] [51] 0 0
D 1.000000000 _0_ RTR  IFQ 52 cbr 1020 [0 0 0 0] ------- [0:0 9:0 32 0] [46] 0 0
s 1.040000000 _0_ AGT  --- 58 cbr 1000 [0 0 0 0] ------- [0:0 9:0 32 0] [52] 0 0
r 1.040000000 _0_ RTR  --- 58 cbr 1000 [0 0 0 0] ------- [0:0 9:0 32 0] [52] 0 0
D 1.040000000 _0_ RTR  IFQ 53 cbr 44 [0 0 0 0] ------- [0:0 9:0 32 0] [47] 0 0
s 1.040000000 _0_ AGT  --- 59 cbr 24 [0 0 0 0] ------- [0:0 9:0 32 0] [53] 0 0
r 1.040000000 _0_ RTR  --- 59 cbr 24 [0 0 0 0] ------- [0:0 9:0 32 0] [53] 0 0
D 1.040000000 _0_ RTR  IFQ 54 cbr 1020 [0 0 0 0] ------- [0:0 9:0 32 0] [48] 0 0
s 1.080000000 _0_ AGT  --- 60 cbr 1000 [0 0 0 0] ------- [0:0 9:0 32 0] [54] 0 0
r 1.080000000 _0_ RTR  --- 60 cbr 1000 [0 0 0 0] ------- [0:0 9:0 32 0] [54] 0 0
D 1.080000000 _0_ RTR  IFQ 55 cbr 44 [0 0 0 0] ------- [0:0 9:0 32 0] [49] 0 0
s 1.080000000 _0_ AGT  --- 61 cbr 24 [0 0 0 0] ------- [0:0 9:0 32 0] [55] 0 0
r 1.080000000 _0_ RTR  --- 61 cbr 24 [0 0 0 0] ------- [0:0 9:0 32 0] [55] 0 0
D 1.080000000 _0_ RTR  IFQ 56 cbr 1020 [0 0 0 0] ------- [0:0 9:0 32 0] [50] 0 0
s 1.120000000 _0_ AGT  --- 63 cbr 1000 [0 0 0 0] ------- [0:0 9:0 32 0] [56] 0 0
r 1.120000000 _0_ RTR  --- 63 cbr 1000 [0 0 0 0] ------- [0:0 9:0 32 0] [56] 0 0
D 1.120000000 _0_ RTR  IFQ 57 cbr 44 [0 0 0 0] ------- [0:0 9:0 32 0] [51] 0 0
s 1.120000000 _0_ AGT  --- 64 cbr 24 [0 0 0 0] ------- [0:0 9:0 32 0] [57] 0 0
r 1.120000000 _0_ RTR  --- 64 cbr 24 [0 0 0 0] ------- [0:0 9:0 32 0] [57] 0 0
D 1.120000000 _0_ RTR  IFQ 58 cbr 1020 [0 0 0 0] ------- [0:0 9:0 32 0] [52] 0 0
s 1.120810887 _1_ RTR  --- 62 message 32 [0 0 0 0] ------- [1:255 -1:255 32 0] 
s 1.121165887 _1_ MAC  --- 62 message 90 [0 ffffffff 1 800] ------- [1:255 -1:255 32 0] 
r 1.121886381 _2_ MAC  --- 62 message 32 [0 ffffffff 1 800] ------- [1:255 -1:255 32 0] 
r 1.121886384 _8_ MAC  --- 62 message 32 [0 ffffffff 1 800] ------- [1:255 -1:255 32 0] 
r 1.121886409 _0_ MAC  --- 62 message 32 [0 ffffffff 1 800] ------- [1:255 -1:255 32 0] 
r 1.121886589 _4_ MAC  --- 62 message 32 [0 ffffffff 1 800] ------- [1:255 -1:255 32 0] 
r 1.121911381 _2_ RTR  --- 62 message 32 [0 ffffffff 1 800] ------- [1:255 -1:255 32 0] 
r 1.121911384 _8_ RTR  --- 62 message 32 [0 ffffffff 1 800] ------- [1:255 -1:255 32 0] 
r 1.121911409 _0_ RTR  --- 62 message 32 [0 ffffffff 1 800] ------- [1:255 -1:255 32 0] 
r 1.121911589 _4_ RTR  --- 62 message 32 [0 ffffffff 1 800] ------- [1:255 -1:255 32 0] 
s 1.160000000 _0_ AGT  --- 65 cbr 1000 [0 0 0 0] ------- [0:0 9:0 32 0] [58] 0 0
r 1.160000000 _0_ RTR  --- 65 cbr 1000 [0 0 0 0] ------- [0:0 9:0 32 0] [58] 0 0
D 1.160000000 _0_ RTR  IFQ 59 cbr 44 [0 0 0 0] ------- [0:0 9:0 32 0] [53] 0 0
s 1.160000000 _0_ AGT  --- 66 cbr 24 [0 0 0 0] ------- [0:0 9:0 32 0] [59] 0 0
r 1.160000000 _0_ RTR  --- 66 cbr 24 [0 0 0 0] ------- [0:0 9:0 32 0] [59] 0 0
D 1.160000000 _0_ RTR  IFQ 60 cbr 1020 [0 0 0 0] ------- [0:0 9:0 32 0] [54] 0 0
s 1.200000000 _0_ AGT  --- 67 cbr 1000 [0 0 0 0] ------- [0:0 9:0 32 0] [60] 0 0
r 1.200000000 _0_ RTR  --- 67 cbr 1000 [0 0 0 0] ------- [0:0 9:0 32 0] [60] 0 0
D 1.200000000 _0_ RTR  IFQ 61 cbr 44 [0 0 0 0] ------- [0:0 9:0 32 0] [55] 0 0
s 1.200000000 _0_ AGT  --- 68 cbr 24 [0 0 0 0] ------- [0:0 9:0 32 0] [61] 0 0
r 1.200000000 _0_ RTR  --- 68 cbr 24 [0 0 0 0] ------- [0:0 9:0 32 0] [61] 0 0
D 1.200000000 _0_ RTR  IFQ 63 cbr 1020 [0 0 0 0] ------- [0:0 9:0 32 0] [56] 0 0
s 1.240000000 _0_ AGT  --- 69 cbr 1000 [0 0 0 0] ------- [0:0 9:0 32 0] [62] 0 0
r 1.240000000 _0_ RTR  --- 69 cbr 1000 [0 0 0 0] ------- [0:0 9:0 32 0] [62] 0 0
D 1.240000000 _0_ RTR  IFQ 64 cbr 44 [0 0 0 0] ------- [0:0 9:0 32 0] [57] 0 0
s 1.240000000 _0_ AGT  --- 70 cbr 24 [0 0 0 0] ------- [0:0 9:0 32 0] [63] 0 0
r 1.240000000 _0_ RTR  --- 70 cbr 24 [0 0 0 0] ------- [0:0 9:0 32 0] [63] 0 0
D 1.240000000 _0_ RTR  IFQ 65 cbr 1020 [0 0 0 0] ------- [0:0 9:0 32 0] [58] 0 0
s 1.279603939 _9_ RTR  --- 71 message 32 [0 0 0 0] ------- [9:255 -1:255 32 0] 
s 1.279898939 _9_ MAC  --- 71 message 90 [0 ffffffff 9 800] ------- [9:255 -1:255 32 0] 
s 1.280000000 _0_ AGT  --- 72 cbr 1000 [0 0 0 0] ------- [0:0 9:0 32 0] [64] 0 0
r 1.280000000 _0_ RTR  --- 72 cbr 1000 [0 0 0 0] ------- [0:0 9:0 32 0] [64] 0 0
D 1.280000000 _0_ RTR  IFQ 66 cbr 44 [0 0 0 0] ------- [0:0 9:0 32 0] [59] 0 0
s 1.280000000 _0_ AGT  --- 73 cbr 24 [0 0 0 0] ------- [0:0 9:0 32 0] [65] 0 0
r 1.280000000 _0_ RTR  --- 73 cbr 24 [0 0 0 0] ------- [0:0 9:0 32 0] [65] 0 0
D 1.280000000 _0_ RTR  IFQ 67 cbr 1020 [0 0 0 0] ------- [0:0 9:0 32 0] [60] 0 0
r 1.280619582 _5_ MAC  --- 71 message 32 [0 ffffffff 9 800] ------- [9:255 -1:255 32 0] 
r 1.280644582 _5_ RTR  --- 71 message 32 [0 ffffffff 9 800] ------- [9:255 -1:255 32 0] 
s 1.320000000 _0_ AGT  --- 74 cbr 1000 [0 0 0 0] ------- [0:0 9:0 32 0] [66] 0 0
r 1.320000000 _0_ RTR  --- 74 cbr 1000 [0 0 0 0] ------- [0:0 9:0 32 0] [66] 0 0
D 1.320000000 _0_ RTR  IFQ 68 cbr 44 [0 0 0 0] ------- [0:0 9:0 32 0] [61] 0 0
s 1.320000000 _0_ AGT  --- 75 cbr 24 [0 0 0 0] ------- [0:0 9:0 32 0] [67] 0 0
r 1.320000000 _0_ RTR  --- 75 cbr 24 [0 0 0 0] ------- [0:0 9:0 32 0] [67] 0 0
D 1.320000000 _0_ RTR  IFQ 69 cbr 1020 [0 0 0 0] ------- [0:0 9:0 32 0] [62] 0 0
s 1.360000000 _0_ AGT  --- 76 cbr 1000 [0 0 0 0] ------- [0:0 9:0 32 0] [68] 0 0
r 1.360000000 _0_ RTR  --- 76 cbr 1000 [0 0 0 0] ------- [0:0 9:0 32 0] [68] 0 0
D 1.360000000 _0_ RTR  IFQ 70 cbr 44 [0 0 0 0] ------- [0:0 9:0 32 0] [63] 0 0
s 1.360000000 _0_ AGT  --- 77 cbr 24 [0 0 0 0] ------- [0:0 9:0 32 0] [69] 0 0
r 1.360000000 _0_ RTR  --- 77 cbr 24 [0 0 0 0] ------- [0:0 9:0 32 0] [69] 0 0
D 1.360000000 _0_ RTR  IFQ 72 cbr 1020 [0 0 0 0] ------- [0:0 9:0 32 0] [64] 0 0
s 1.400000000 _0_ AGT  --- 78 cbr 1000 [0 0 0 0] ------- [0:0 9:0 32 0] [70] 0 0
r 1.400000000 _0_ RTR  --- 78 cbr 1000 [0 0 0 0] ------- [0:0 9:0 32 0] [70] 0 0
D 1.400000000 _0_ RTR  IFQ 73 cbr 44 [0 0 0 0] ------- [0:0 9:0 32 0] [65] 0 0
s 1.400000000 _0_ AGT  --- 79 cbr 24 [0 0 0 0] ------- [0:0 9:0 32 0] [71] 0 0
r 1.400000000 _0_ RTR  --- 79 cbr 24 [0 0 0 0] ------- [0:0 9:0 32 0] [71] 0 0
D 1.400000000 _0_ RTR  IFQ 74 cbr 1020 [0 0 0 0] ------- [0:0 9:0 32 0] [66] 0 0
s 1.440000000 _0_ AGT  --- 80 cbr 1000 [0 0 0 0] ------- [0:0 9:0 32 0] [72] 0 0
r 1.440000000 _0_ RTR  --- 80 cbr 1000 [0 0 0 0] ------- [0:0 9:0 32 0] [72] 0 0
D 1.440000000 _0_ RTR  IFQ 75 cbr 44 [0 0 0 0] ------- [0:0 9:0 32 0] [67] 0 0
s 1.440000000 _0_ AGT  --- 81 cbr 24 [0 0 0 0] ------- [0:0 9:0 32 0] [73] 0 0
r 1.440000000 _0_ RTR  --- 81 cbr 24 [0 0 0 0] ------- [0:0 9:0 32 0] [73] 0 0
D 1.440000000 _0_ RTR  IFQ 76 cbr 1020 [0 0 0 0] ------- [0:0 9:0 32 0] [68] 0 0
s 1.480000000 _0_ AGT  --- 82 cbr 1000 [0 0 0 0] ------- [0:0 9:0 32 0] [74] 0 0
r 1.480000000 _0_ RTR  --- 82 cbr 1000 [0 0 0 0] ------- [0:0 9:0 32 0] [74] 0 0
D 1.480000000 _0_ RTR  IFQ 77 cbr 44 [0 0 0 0] ------- [0:0 9:0 32 0] [69] 0 0
s 1.480000000 _0_ AGT  --- 83 cbr 24 [0 0 0 0] ------- [0:0 9:0 32 0] [75] 0 0
r 1.480000000 _0_ RTR  --- 83 cbr 24 [0 0 0 0] ------- [0:0 9:0 32 0] [75] 0 0
D 1.480000000 _0_ RTR  IFQ 78 cbr 1020 [0 0 0 0] ------- [0:0 9:0 32 0] [70] 0 0
s 1.520000000 _0_ AGT  --- 84 cbr 1000 [0 0 0 0] ------- [0:0 9:0 32 0] [76] 0 0
r 1.520000000 _0_ RTR  --- 84 cbr 1000 [0 0 0 0] ------- [0:0 9:0 32 0] [76] 0 0
D 1.520000000 _0_ RTR  IFQ 79 cbr 44 [0 0 0 0] ------- [0:0 9:0 32 0] [71] 0 0
s 1.520000000 _0_ AGT  --- 85 cbr 24 [0 0 0 0] ------- [0:0 9:0 32 0] [77] 0 0
r 1.520000000 _0_ RTR  --- 85 cbr 24 [0 0 0 0] ------- [0:0 9:0 32 0] [77] 0 0
D 1.520000000 _0_ RTR  IFQ 80 cbr 1020 [0 0 0 0] ------- [0:0 9:0 32 0] [72] 0 0
s 1.560000000 _0_ AGT  --- 86 cbr 1000 [0 0 0 0] ------- [0:0 9:0 32 0] [78] 0 0
r 1.560000000 _0_ RTR  --- 86 cbr 1000 [0 0 0 0] ------- [0:0 9:0 32 0] [78] 0 0
D 1.560000000 _0_ RTR  IFQ 81 cbr 44 [0 0 0 0] ------- [0:0 9:0 32 0] [73] 0 0
s 1.560000000 _0_ AGT  --- 87 cbr 24 [0 0 0 0] ------- [0:0 9:0 32 0] [79] 0 0
r 1.560000000 _0_ RTR  --- 87 cbr 24 [0 0 0 0] ------- [0:0 9:0 32 0] [79] 0 0
D 1.560000000 _0_ RTR  IFQ 82 cbr 1020 [0 0 0 0] ------- [0:0 9:0 32 0] [74] 0 0
s 1.599431220 _5_ RTR  --- 88 message 32 [0 0 0 0] ------- [5:255 -1:255 32 0] 
s 1.599626220 _5_ MAC  --- 88 message 90 [0 ffffffff 5 800] ------- [5:255 -1:255 32 0] 
s 1.600000000 _0_ AGT  --- 89 cbr 1000 [0 0 0 0] ------- [0:0 9:0 32 0] [80] 0 0
r 1.600000000 _0_ RTR  --- 89 cbr 1000 [0 0 0 0] ------- [0:0 9:0 32 0] [80] 0 0
D 1.600000000 _0_ RTR  IFQ 83 cbr 44 [0 0 0 0] ------- [0:0 9:0 32 0] [75] 0 0
s 1.600000000 _0_ AGT  --- 90 cbr 24 [0 0 0 0] ------- [0:0 9:0 32 0] [81] 0 0
r 1.600000000 _0_ RTR  --- 90 cbr 24 [0 0 0 0] ------- [0:0 9:0 32 0] [81] 0 0
D 1.600000000 _0_ RTR  IFQ 84 cbr 1020 [0 0 0 0] ------- [0:0 9:0 32 0] [76] 0 0
r 1.600346783 _6_ MAC  --- 88 message 32 [0 ffffffff 5 800] ------- [5:255 -1:255 32 0] 
r 1.600346844 _4_ MAC  --- 88 message 32 [0 ffffffff 5 800] ------- [5:255 -1:255 32 0] 
r 1.600346862 _9_ MAC  --- 88 message 32 [0 ffffffff 5 800] ------- [5:255 -1:255 32 0] 
r 1.600371783 _6_ RTR  --- 88 message 32 [0 ffffffff 5 800] ------- [5:255 -1:255 32 0] 
r 1.600371844 _4_ RTR  --- 88 message 32 [0 ffffffff 5 800] ------- [5:255 -1:255 32 0] 
r 1.600371862 _9_ RTR  --- 88 message 32 [0 ffffffff 5 800] ------- [5:255 -1:255 32 0] 
s 1.636308730 _7_ RTR  --- 91 message 32 [0 0 0 0] ------- [7:255 -1:255 32 0] 
s 1.636563730 _7_ MAC  --- 91 message 90 [0 ffffffff 7 800] ------- [7:255 -1:255 32 0] 
r 1.637284278 _8_ MAC  --- 91 message 32 [0 ffffffff 7 800] ------- [7:255 -1:255 32 0] 
r 1.637309278 _8_ RTR  --- 91 message 32 [0 ffffffff 7 800] ------- [7:255 -1:255 32 0] 
s 1.640000000 _0_ AGT  --- 92 cbr 1000 [0 0 0 0] ------- [0:0 9:0 32 0] [82] 0 0
r 1.640000000 _0_ RTR  --- 92 cbr 1000 [0 0 0 0] ------- [0:0 9:0 32 0] [82] 0 0
D 1.640000000 _0_ RTR  IFQ 85 cbr 44 [0 0 0 0] ------- [0:0 9:0 32 0] [77] 0 0
s 1.640000000 _0_ AGT  --- 93 cbr 24 [0 0 0 0] ------- [0:0 9:0 32 0] [83] 0 0
r 1.640000000 _0_ RTR  --- 93 cbr 24 [0 0 0 0] ------- [0:0 9:0 32 0] [83] 0 0
D 1.640000000 _0_ RTR  IFQ 86 cbr 1020 [0 0 0 0] ------- [0:0 9:0 32 0] [78] 0 0
s 1.680000000 _0_ AGT  --- 94 cbr 1000 [0 0 0 0] ------- [0:0 9:0 32 0] [84] 0 0
r 1.680000000 _0_ RTR  --- 94 cbr 1000 [0 0 0 0] ------- [0:0 9:0 32 0] [84] 0 0
D 1.680000000 _0_ RTR  IFQ 87 cbr 44 [0 0 0 0] ------- [0:0 9:0 32 0] [79] 0 0
s 1.680000000 _0_ AGT  --- 95 cbr 24 [0 0 0 0] ------- [0:0 9:0 32 0] [85] 0 0
r 1.680000000 _0_ RTR  --- 95 cbr 24 [0 0 0 0] ------- [0:0 9:0 32 0] [85] 0 0
D 1.680000000 _0_ RTR  IFQ 89 cbr 1020 [0 0 0 0] ------- [0:0 9:0 32 0] [80] 0 0
s 1.720000000 _0_ AGT  --- 96 cbr 1000 [0 0 0 0] ------- [0:0 9:0 32 0] [86] 0 0
r 1.720000000 _0_ RTR  --- 96 cbr 1000 [0 0 0 0] ------- [0:0 9:0 32 0] [86] 0 0
D 1.720000000 _0_ RTR  IFQ 90 cbr 44 [0 0 0 0] ------- [0:0 9:0 32 0] [81] 0 0
s 1.720000000 _0_ AGT  --- 97 cbr 24 [0 0 0 0] ------- [0:0 9:0 32 0] [87] 0 0
r 1.720000000 _0_ RTR  --- 97 cbr 24 [0 0 0 0] ------- [0:0 9:0 32 0] [87] 0 0
D 1.720000000 _0_ RTR  IFQ 92 cbr 1020 [0 0 0 0] ------- [0:0 9:0 32 0] [82] 0 0
s 1.760000000 _0_ AGT  --- 98 cbr 1000 [0 0 0 0] ------- [0:0 9:0 32 0] [88] 0 0
r 1.760000000 _0_ RTR  --- 98 cbr 1000 [0 0 0 0] ------- [0:0 9:0 32 0] [88] 0 0
D 1.760000000 _0_ RTR  IFQ 93 cbr 44 [0 0 0 0] ------- [0:0 9:0 32 0] [83] 0 0
s 1.760000000 _0_ AGT  --- 99 cbr 24 [0 0 0 0] ------- [0:0 9:0 32 0] [89] 0 0
r 1.760000000 _0_ RTR  --- 99 cbr 24 [0 0 0 0] ------- [0:0 9:0 32 0] [89] 0 0
D 1.760000000 _0_ RTR  IFQ 94 cbr 1020 [0 0 0 0] ------- [0:0 9:0 32 0] [84] 0 0
s 1.800000000 _0_ AGT  --- 100 cbr 1000 [0 0 0 0] ------- [0:0 9:0 32 0] [90] 0 0
r 1.800000000 _0_ RTR  --- 100 cbr 1000 [0 0 0 0] ------- [0:0 9:0 32 0] [90] 0 0
D 1.800000000 _0_ RTR  IFQ 95 cbr 44 [0 0 0 0] ------- [0:0 9:0 32 0] [85] 0 0
s 1.800000000 _0_ AGT  --- 101 cbr 24 [0 0 0 0] ------- [0:0 9:0 32 0] [91] 0 0
r 1.800000000 _0_ RTR  --- 101 cbr 24 [0 0 0 0] ------- [0:0 9:0 32 0] [91] 0 0
D 1.800000000 _0_ RTR  IFQ 96 cbr 1020 [0 0 0 0] ------- [0:0 9:0 32 0] [86] 0 0
s 1.840000000 _0_ AGT  --- 102 cbr 1000 [0 0 0 0] ------- [0:0 9:0 32 0] [92] 0 0
r 1.840000000 _0_ RTR  --- 102 cbr 1000 [0 0 0 0] ------- [0:0 9:0 32 0] [92] 0 0
D 1.840000000 _0_ RTR  IFQ 97 cbr 44 [0 0 0 0] ------- [0:0 9:0 32 0] [87] 0 0
s 1.840000000 _0_ AGT  --- 103 cbr 24 [0 0 0 0] ------- [0:0 9:0 32 0] [93] 0 0
r 1.840000000 _0_ RTR  --- 103 cbr 24 [0 0 0 0] ------- [0:0 9:0 32 0] [93] 0 0
D 1.840000000 _0_ RTR  IFQ 98 cbr 1020 [0 0 0 0] ------- [0:0 9:0 32 0] [88] 0 0
s 1.880000000 _0_ AGT  --- 104 cbr 1000 [0 0 0 0] ------- [0:0 9:0 32 0] [94] 0 0
r 1.880000000 _0_ RTR  --- 104 cbr 1000 [0 0 0 0] ------- [0:0 9:0 32 0] [94] 0 0
D 1.880000000 _0_ RTR  IFQ 99 cbr 44 [0 0 0 0] ------- [0:0 9:0 32 0] [89] 0 0
s 1.880000000 _0_ AGT  --- 105 cbr 24 [0 0 0 0] ------- [0:0 9:0 32 0] [95] 0 0
r 1.880000000 _0_ RTR  --- 105 cbr 24 [0 0 0 0] ------- [0:0 9:0 32 0] [95] 0 0
D 1.880000000 _0_ RTR  IFQ 100 cbr 1020 [0 0 0 0] ------- [0:0 9:0 32 0] [90] 0 0
s 1.920000000 _0_ AGT  --- 106 cbr 1000 [0 0 0 0] ------- [0:0 9:0 32 0] [96] 0 0
r 1.920000000 _0_ RTR  --- 106 cbr 1000 [0 0 0 0] ------- [0:0 9:0 32 0] [96] 0 0
D 1.920000000 _0_ RTR  IFQ 101 cbr 44 [0 0 0 0] ------- [0:0 9:0 32 0] [91] 0 0
s 1.920000000 _0_ AGT  --- 107 cbr 24 [0 0 0 0] ------- [0:0 9:0 32 0] [97] 0 0
r 1.920000000 _0_ RTR  --- 107 cbr 24 [0 0 0 0] ------- [0:0 9:0 32 0] [97] 0 0
D 1.920000000 _0_ RTR  IFQ 102 cbr 1020 [0 0 0 0] ------- [0:0 9:0 32 0] [92] 0 0
s 1.960000000 _0_ AGT  --- 108 cbr 1000 [0 0 0 0] ------- [0:0 9:0 32 0] [98] 0 0
r 1.960000000 _0_ RTR  --- 108 cbr 1000 [0 0 0 0] ------- [0:0 9:0 32 0] [98] 0 0
D 1.960000000 _0_ RTR  IFQ 103 cbr 44 [0 0 0 0] ------- [0:0 9:0 32 0] [93] 0 0
s 1.960000000 _0_ AGT  --- 109 cbr 24 [0 0 0 0] ------- [0:0 9:0 32 0] [99] 0 0
r 1.960000000 _0_ RTR  --- 109 cbr 24 [0 0 0 0] ------- [0:0 9:0 32 0] [99] 0 0
D 1.960000000 _0_ RTR  IFQ 104 cbr 1020 [0 0 0 0] ------- [0:0 9:0 32 0] [94] 0 0
s 2.000000000 _0_ AGT  --- 110 cbr 1000 [0 0 0 0] ------- [0:0 9:0 32 0] [100] 0 0
r 2.000000000 _0_ RTR  --- 110 cbr 1000 [0 0 0 0] ------- [0:0 9:0 32 0] [100] 0 0
D 2.000000000 _0_ RTR  IFQ 105 cbr 44 [0 0 0 0] ------- [0:0 9:0 32 0] [95] 0 0
s 2.000000000 _0_ AGT  --- 111 cbr 24 [0 0 0 0] ------- [0:0 9:0 32 0] [101] 0 0