+ 0.260593 /NodeList/2/DeviceList/0/$ns3::PointToPointNetDevice/TxQueue/Enqueue ns3::PppHeader (Point-to-Point Protocol: IP (0x0021)) ns3::Ipv4Header (tos 0x0 DSCP Default ECN Not-ECT ttl 1 id 0 protocol 17 offset (bytes) 0 flags [none] length: 52 10.0.0.2 > 224.0.0.9) ns3::UdpHeader (length: 32 520 > 520) ns3::RipHeader (command 1 | prefix 0.0.0.0/0 Metric 16 Tag 0 Next Hop 0.0.0.0)
- 0.260593 /NodeList/2/DeviceList/0/$ns3::PointToPointNetDevice/TxQueue/Dequeue ns3::PppHeader (Point-to-Point Protocol: IP (0x0021)) ns3::Ipv4Header (tos 0x0 DSCP Default ECN Not-ECT ttl 1 id 0 protocol 17 offset (bytes) 0 flags [none] length: 52 10.0.0.2 > 224.0.0.9) ns3::UdpHeader (length: 32 520 > 520) ns3::RipHeader (command 1 | prefix 0.0.0.0/0 Metric 16 Tag 0 Next Hop 0.0.0.0)
+ 0.260593 /NodeList/2/DeviceList/1/$ns3::PointToPointNetDevice/TxQueue/Enqueue ns3::PppHeader (Point-to-Point Protocol: IP (0x0021)) ns3::Ipv4Header (tos 0x0 DSCP Default ECN Not-ECT ttl 1 id 0 protocol 17 offset (bytes) 0 flags [none] length: 52 10.0.1.1 > 224.0.0.9) ns3::UdpHeader (length: 32 520 > 520) ns3::RipHeader (command 1 | prefix 0.0.0.0/0 Metric 16 Tag 0 Next Hop 0.0.0.0)
- 0.260593 /NodeList/2/DeviceList/1/$ns3::PointToPointNetDevice/TxQueue/Dequeue ns3::PppHeader (Point-to-Point Protocol: IP (0x0021)) ns3::Ipv4Header (tos 0x0 DSCP Default ECN Not-ECT ttl 1 id 0 protocol 17 offset (bytes) 0 flags [none] length: 52 10.0.1.1 > 224.0.0.9) ns3::UdpHeader (length: 32 520 > 520) ns3::RipHeader (command 1 | prefix 0.0.0.0/0 Metric 16 Tag 0 Next Hop 0.0.0.0)
r 0.263025 /NodeList/0/DeviceList/0/$ns3::PointToPointNetDevice/MacRx ns3::PppHeader (Point-to-Point Protocol: IP (0x0021)) ns3::Ipv4Header (tos 0x0 DSCP Default ECN Not-ECT ttl 1 id 0 protocol 17 offset (bytes) 0 flags [none] length: 52 10.0.0.2 > 224.0.0.9) ns3::UdpHeader (length: 32 520 > 520) ns3::RipHeader (command 1 | prefix 0.0.0.0/0 Metric 16 Tag 0 Next Hop 0.0.0.0)
+ 0.263025 /NodeList/0/DeviceList/0/$ns3::PointToPointNetDevice/TxQueue/Enqueue ns3::PppHeader (Point-to-Point Protocol: IP (0x0021)) ns3::Ipv4Header (tos 0x0 DSCP Default ECN Not-ECT ttl 255 id 0 protocol 17 offset (bytes) 0 flags [none] length: 72 10.0.0.1 > 10.0.0.2) ns3::UdpHeader (length: 52 520 > 520) ns3::RipHeader (command 2 | prefix 10.0.0.0/24 Metric 16 Tag 0 Next Hop 0.0.0.0 | prefix 10.0.2.0/24 Metric 1 Tag 0 Next Hop 0.0.0.0)
- 0.263025 /NodeList/0/DeviceList/0/$ns3::PointToPointNetDevice/TxQueue/Dequeue ns3::PppHeader (Point-to-Point Protocol: IP (0x0021)) ns3::Ipv4Header (tos 0x0 DSCP Default ECN Not-ECT ttl 255 id 0 protocol 17 offset (bytes) 0 flags [none] length: 72 10.0.0.1 > 10.0.0.2) ns3::UdpHeader (length: 52 520 > 520) ns3::RipHeader (command 2 | prefix 10.0.0.0/24 Metric 16 Tag 0 Next Hop 0.0.0.0 | prefix 10.0.2.0/24 Metric 1 Tag 0 Next Hop 0.0.0.0)
r 0.263025 /NodeList/1/DeviceList/0/$ns3::PointToPointNetDevice/MacRx ns3::PppHeader (Point-to-Point Protocol: IP (0x0021)) ns3::Ipv4Header (tos 0x0 DSCP Default ECN Not-ECT ttl 1 id 0 protocol 17 offset (bytes) 0 flags [none] length: 52 10.0.1.1 > 224.0.0.9) ns3::UdpHeader (length: 32 520 > 520) ns3::RipHeader (command 1 | prefix 0.0.0.0/0 Metric 16 Tag 0 Next Hop 0.0.0.0)
+ 0.263025 /NodeList/1/DeviceList/0/$ns3::PointToPointNetDevice/TxQueue/Enqueue ns3::PppHeader (Point-to-Point Protocol: IP (0x0021)) ns3::Ipv4Header (tos 0x0 DSCP Default ECN Not-ECT ttl 255 id 0 protocol 17 offset (bytes) 0 flags [none] length: 72 10.0.1.2 > 10.0.1.1) ns3::UdpHeader (length: 52 520 > 520) ns3::RipHeader (command 2 | prefix 10.0.1.0/24 Metric 16 Tag 0 Next Hop 0.0.0.0 | prefix 10.0.2.0/24 Metric 1 Tag 0 Next Hop 0.0.0.0)
- 0.263025 /NodeList/1/DeviceList/0/$ns3::PointToPointNetDevice/TxQueue/Dequeue ns3::PppHeader (Point-to-Point Protocol: IP (0x0021)) ns3::Ipv4Header (tos 0x0 DSCP Default ECN Not-ECT ttl 255 id 0 protocol 17 offset (bytes) 0 flags [none] length: 72 10.0.1.2 > 10.0.1.1) ns3::UdpHeader (length: 52 520 > 520) ns3::RipHeader (command 2 | prefix 10.0.1.0/24 Metric 16 Tag 0 Next Hop 0.0.0.0 | prefix 10.0.2.0/24 Metric 1 Tag 0 Next Hop 0.0.0.0)
r 0.265617 /NodeList/2/DeviceList/0/$ns3::PointToPointNetDevice/MacRx ns3::PppHeader (Point-to-Point Protocol: IP (0x0021)) ns3::Ipv4Header (tos 0x0 DSCP Default ECN Not-ECT ttl 255 id 0 protocol 17 offset (bytes) 0 flags [none] length: 72 10.0.0.1 > 10.0.0.2) ns3::UdpHeader (length: 52 520 > 520) ns3::RipHeader (command 2 | prefix 10.0.0.0/24 Metric 16 Tag 0 Next Hop 0.0.0.0 | prefix 10.0.2.0/24 Metric 1 Tag 0 Next Hop 0.0.0.0)
r 0.265617 /NodeList/2/DeviceList/1/$ns3::PointToPointNetDevice/MacRx ns3::PppHeader (Point-to-Point Protocol: IP (0x0021)) ns3::Ipv4Header (tos 0x0 DSCP Default ECN Not-ECT ttl 255 id 0 protocol 17 offset (bytes) 0 flags [none] length: 72 10.0.1.2 > 10.0.1.1) ns3::UdpHeader (length: 52 520 > 520) ns3::RipHeader (command 2 | prefix 10.0.1.0/24 Metric 16 Tag 0 Next Hop 0.0.0.0 | prefix 10.0.2.0/24 Metric 1 Tag 0 Next Hop 0.0.0.0)
+ 0.271897 /NodeList/1/DeviceList/0/$ns3::PointToPointNetDevice/TxQueue/Enqueue ns3::PppHeader (Point-to-Point Protocol: IP (0x0021)) ns3::Ipv4Header (tos 0x0 DSCP Default ECN Not-ECT ttl 1 id 0 protocol 17 offset (bytes) 0 flags [none] length: 52 10.0.1.2 > 224.0.0.9) ns3::UdpHeader (length: 32 520 > 520) ns3::RipHeader (command 1 | prefix 0.0.0.0/0 Metric 16 Tag 0 Next Hop 0.0.0.0)
- 0.271897 /NodeList/1/DeviceList/0/$ns3::PointToPointNetDevice/TxQueue/Dequeue ns3::PppHeader (Point-to-Point Protocol: IP (0x0021)) ns3::Ipv4Header (tos 0x0 DSCP Default ECN Not-ECT ttl 1 id 0 protocol 17 offset (bytes) 0 flags [none] length: 52 10.0.1.2 > 224.0.0.9) ns3::UdpHeader (length: 32 520 > 520) ns3::RipHeader (command 1 | prefix 0.0.0.0/0 Metric 16 Tag 0 Next Hop 0.0.0.0)
+ 0.271897 /NodeList/1/DeviceList/1/$ns3::PointToPointNetDevice/TxQueue/Enqueue ns3::PppHeader (Point-to-Point Protocol: IP (0x0021)) ns3::Ipv4Header (tos 0x0 DSCP Default ECN Not-ECT ttl 1 id 0 protocol 17 offset (bytes) 0 flags [none] length: 52 10.0.2.2 > 224.0.0.9) ns3::UdpHeader (length: 32 520 > 520) ns3::RipHeader (command 1 | prefix 0.0.0.0/0 Metric 16 Tag 0 Next Hop 0.0.0.0)
- 0.271897 /NodeList/1/DeviceList/1/$ns3::PointToPointNetDevice/TxQueue/Dequeue ns3::PppHeader (Point-to-Point Protocol: IP (0x0021)) ns3::Ipv4Header (tos 0x0 DSCP Default ECN Not-ECT ttl 1 id 0 protocol 17 offset (bytes) 0 flags [none] length: 52 10.0.2.2 > 224.0.0.9) ns3::UdpHeader (length: 32 520 > 520) ns3::RipHeader (command 1 | prefix 0.0.0.0/0 Metric 16 Tag 0 Next Hop 0.0.0.0)
r 0.274329 /NodeList/2/DeviceList/1/$ns3::PointToPointNetDevice/MacRx ns3::PppHeader (Point-to-Point Protocol: IP (0x0021)) ns3::Ipv4Header (tos 0x0 DSCP Default ECN Not-ECT ttl 1 id 0 protocol 17 offset (bytes) 0 flags [none] length: 52 10.0.1.2 > 224.0.0.9) ns3::UdpHeader (length: 32 520 > 520) ns3::RipHeader (command 1 | prefix 0.0.0.0/0 Metric 16 Tag 0 Next Hop 0.0.0.0)
+ 0.274329 /NodeList/2/DeviceList/1/$ns3::PointToPointNetDevice/TxQueue/Enqueue ns3::PppHeader (Point-to-Point Protocol: IP (0x0021)) ns3::Ipv4Header (tos 0x0 DSCP Default ECN Not-ECT ttl 255 id 0 protocol 17 offset (bytes) 0 flags [none] length: 92 10.0.1.1 > 10.0.1.2) ns3::UdpHeader (length: 72 520 > 520) ns3::RipHeader (command 2 | prefix 10.0.2.0/24 Metric 2 Tag 0 Next Hop 0.0.0.0 | prefix 10.0.0.0/24 Metric 1 Tag 0 Next Hop 0.0.0.0 | prefix 10.0.1.0/24 Metric 16 Tag 0 Next Hop 0.0.0.0)
- 0.274329 /NodeList/2/DeviceList/1/$ns3::PointToPointNetDevice/TxQueue/Dequeue ns3::PppHeader (Point-to-Point Protocol: IP (0x0021)) ns3::Ipv4Header (tos 0x0 DSCP Default ECN Not-ECT ttl 255 id 0 protocol 17 offset (bytes) 0 flags [none] length: 92 10.0.1.1 > 10.0.1.2) ns3::UdpHeader (length: 72 520 > 520) ns3::RipHeader (command 2 | prefix 10.0.2.0/24 Metric 2 Tag 0 Next Hop 0.0.0.0 | prefix 10.0.0.0/24 Metric 1 Tag 0 Next Hop 0.0.0.0 | prefix 10.0.1.0/24 Metric 16 Tag 0 Next Hop 0.0.0.0)
r 0.277081 /NodeList/1/DeviceList/0/$ns3::PointToPointNetDevice/MacRx ns3::PppHeader (Point-to-Point Protocol: IP (0x0021)) ns3::Ipv4Header (tos 0x0 DSCP Default ECN Not-ECT ttl 255 id 0 protocol 17 offset (bytes) 0 flags [none] length: 92 10.0.1.1 > 10.0.1.2) ns3::UdpHeader (length: 72 520 > 520) ns3::RipHeader (command 2 | prefix 10.0.2.0/24 Metric 2 Tag 0 Next Hop 0.0.0.0 | prefix 10.0.0.0/24 Metric 1 Tag 0 Next Hop 0.0.0.0 | prefix 10.0.1.0/24 Metric 16 Tag 0 Next Hop 0.0.0.0)
r 0.417897 /NodeList/0/DeviceList/1/$ns3::PointToPointNetDevice/MacRx ns3::PppHeader (Point-to-Point Protocol: IP (0x0021)) ns3::Ipv4Header (tos 0x0 DSCP Default ECN Not-ECT ttl 1 id 0 protocol 17 offset (bytes) 0 flags [none] length: 52 10.0.2.2 > 224.0.0.9) ns3::UdpHeader (length: 32 520 > 520) ns3::RipHeader (command 1 | prefix 0.0.0.0/0 Metric 16 Tag 0 Next Hop 0.0.0.0)
+ 0.417897 /NodeList/0/DeviceList/1/$ns3::PointToPointNetDevice/TxQueue/Enqueue ns3::PppHeader (Point-to-Point Protocol: IP (0x0021)) ns3::Ipv4Header (tos 0x0 DSCP Default ECN Not-ECT ttl 255 id 0 protocol 17 offset (bytes) 0 flags [none] length: 72 10.0.2.1 > 10.0.2.2) ns3::UdpHeader (length: 52 520 > 520) ns3::RipHeader (command 2 | prefix 10.0.0.0/24 Metric 1 Tag 0 Next Hop 0.0.0.0 | prefix 10.0.2.0/24 Metric 16 Tag 0 Next Hop 0.0.0.0)
- 0.417897 /NodeList/0/DeviceList/1/$ns3::PointToPointNetDevice/TxQueue/Dequeue ns3::PppHeader (Point-to-Point Protocol: IP (0x0021)) ns3::Ipv4Header (tos 0x0 DSCP Default ECN Not-ECT ttl 255 id 0 protocol 17 offset (bytes) 0 flags [none] length: 72 10.0.2.1 > 10.0.2.2) ns3::UdpHeader (length: 52 520 > 520) ns3::RipHeader (command 2 | prefix 10.0.0.0/24 Metric 1 Tag 0 Next Hop 0.0.0.0 | prefix 10.0.2.0/24 Metric 16 Tag 0 Next Hop 0.0.0.0)
+ 0.553292 /NodeList/0/DeviceList/0/$ns3::PointToPointNetDevice/TxQueue/Enqueue ns3::PppHeader (Point-to-Point Protocol: IP (0x0021)) ns3::Ipv4Header (tos 0x0 DSCP Default ECN Not-ECT ttl 1 id 0 protocol 17 offset (bytes) 0 flags [none] length: 52 10.0.0.1 > 224.0.0.9) ns3::UdpHeader (length: 32 520 > 520) ns3::RipHeader (command 1 | prefix 0.0.0.0/0 Metric 16 Tag 0 Next Hop 0.0.0.0)
- 0.553292 /NodeList/0/DeviceList/0/$ns3::PointToPointNetDevice/TxQueue/Dequeue ns3::PppHeader (Point-to-Point Protocol: IP (0x0021)) ns3::Ipv4Header (tos 0x0 DSCP Default ECN Not-ECT ttl 1 id 0 protocol 17 offset (bytes) 0 flags [none] length: 52 10.0.0.1 > 224.0.0.9) ns3::UdpHeader (length: 32 520 > 520) ns3::RipHeader (command 1 | prefix 0.0.0.0/0 Metric 16 Tag 0 Next Hop 0.0.0.0)
+ 0.553292 /NodeList/0/DeviceList/1/$ns3::PointToPointNetDevice/TxQueue/Enqueue ns3::PppHeader (Point-to-Point Protocol: IP (0x0021)) ns3::Ipv4Header (tos 0x0 DSCP Default ECN Not-ECT ttl 1 id 0 protocol 17 offset (bytes) 0 flags [none] length: 52 10.0.2.1 > 224.0.0.9) ns3::UdpHeader (length: 32 520 > 520) ns3::RipHeader (command 1 | prefix 0.0.0.0/0 Metric 16 Tag 0 Next Hop 0.0.0.0)
r 0.555724 /NodeList/2/DeviceList/0/$ns3::PointToPointNetDevice/MacRx ns3::PppHeader (Point-to-Point Protocol: IP (0x0021)) ns3::Ipv4Header (tos 0x0 DSCP Default ECN Not-ECT ttl 1 id 0 protocol 17 offset (bytes) 0 flags [none] length: 52 10.0.0.1 > 224.0.0.9) ns3::UdpHeader (length: 32 520 > 520) ns3::RipHeader (command 1 | prefix 0.0.0.0/0 Metric 16 Tag 0 Next Hop 0.0.0.0)
+ 0.555724 /NodeList/2/DeviceList/0/$ns3::PointToPointNetDevice/TxQueue/Enqueue ns3::PppHeader (Point-to-Point Protocol: IP (0x0021)) ns3::Ipv4Header (tos 0x0 DSCP Default ECN Not-ECT ttl 255 id 0 protocol 17 offset (bytes) 0 flags [none] length: 92 10.0.0.2 > 10.0.0.1) ns3::UdpHeader (length: 72 520 > 520) ns3::RipHeader (command 2 | prefix 10.0.2.0/24 Metric 16 Tag 0 Next Hop 0.0.0.0 | prefix 10.0.0.0/24 Metric 16 Tag 0 Next Hop 0.0.0.0 | prefix 10.0.1.0/24 Metric 1 Tag 0 Next Hop 0.0.0.0)
- 0.555724 /NodeList/2/DeviceList/0/$ns3::PointToPointNetDevice/TxQueue/Dequeue ns3::PppHeader (Point-to-Point Protocol: IP (0x0021)) ns3::Ipv4Header (tos 0x0 DSCP Default ECN Not-ECT ttl 255 id 0 protocol 17 offset (bytes) 0 flags [none] length: 92 10.0.0.2 > 10.0.0.1) ns3::UdpHeader (length: 72 520 > 520) ns3::RipHeader (command 2 | prefix 10.0.2.0/24 Metric 16 Tag 0 Next Hop 0.0.0.0 | prefix 10.0.0.0/24 Metric 16 Tag 0 Next Hop 0.0.0.0 | prefix 10.0.1.0/24 Metric 1 Tag 0 Next Hop 0.0.0.0)
r 0.558476 /NodeList/0/DeviceList/0/$ns3::PointToPointNetDevice/MacRx ns3::PppHeader (Point-to-Point Protocol: IP (0x0021)) ns3::Ipv4Header (tos 0x0 DSCP Default ECN Not-ECT ttl 255 id 0 protocol 17 offset (bytes) 0 flags [none] length: 92 10.0.0.2 > 10.0.0.1) ns3::UdpHeader (length: 72 520 > 520) ns3::RipHeader (command 2 | prefix 10.0.2.0/24 Metric 16 Tag 0 Next Hop 0.0.0.0 | prefix 10.0.0.0/24 Metric 16 Tag 0 Next Hop 0.0.0.0 | prefix 10.0.1.0/24 Metric 1 Tag 0 Next Hop 0.0.0.0)
- 0.615231 /NodeList/0/DeviceList/1/$ns3::PointToPointNetDevice/TxQueue/Dequeue ns3::PppHeader (Point-to-Point Protocol: IP (0x0021)) ns3::Ipv4Header (tos 0x0 DSCP Default ECN Not-ECT ttl 1 id 0 protocol 17 offset (bytes) 0 flags [none] length: 52 10.0.2.1 > 224.0.0.9) ns3::UdpHeader (length: 32 520 > 520) ns3::RipHeader (command 1 | prefix 0.0.0.0/0 Metric 16 Tag 0 Next Hop 0.0.0.0)
r 0.617231 /NodeList/1/DeviceList/1/$ns3::PointToPointNetDevice/MacRx ns3::PppHeader (Point-to-Point Protocol: IP (0x0021)) ns3::Ipv4Header (tos 0x0 DSCP Default ECN Not-ECT ttl 255 id 0 protocol 17 offset (bytes) 0 flags [none] length: 72 10.0.2.1 > 10.0.2.2) ns3::UdpHeader (length: 52 520 > 520) ns3::RipHeader (command 2 | prefix 10.0.0.0/24 Metric 1 Tag 0 Next Hop 0.0.0.0 | prefix 10.0.2.0/24 Metric 16 Tag 0 Next Hop 0.0.0.0)
r 0.761231 /NodeList/1/DeviceList/1/$ns3::PointToPointNetDevice/MacRx ns3::PppHeader (Point-to-Point Protocol: IP (0x0021)) ns3::Ipv4Header (tos 0x0 DSCP Default ECN Not-ECT ttl 1 id 0 protocol 17 offset (bytes) 0 flags [none] length: 52 10.0.2.1 > 224.0.0.9) ns3::UdpHeader (length: 32 520 > 520) ns3::RipHeader (command 1 | prefix 0.0.0.0/0 Metric 16 Tag 0 Next Hop 0.0.0.0)
+ 0.761231 /NodeList/1/DeviceList/1/$ns3::PointToPointNetDevice/TxQueue/Enqueue ns3::PppHeader (Point-to-Point Protocol: IP (0x0021)) ns3::Ipv4Header (tos 0x0 DSCP Default ECN Not-ECT ttl 255 id 0 protocol 17 offset (bytes) 0 flags [none] length: 92 10.0.2.2 > 10.0.2.1) ns3::UdpHeader (length: 72 520 > 520) ns3::RipHeader (command 2 | prefix 10.0.0.0/24 Metric 2 Tag 0 Next Hop 0.0.0.0 | prefix 10.0.1.0/24 Metric 1 Tag 0 Next Hop 0.0.0.0 | prefix 10.0.2.0/24 Metric 16 Tag 0 Next Hop 0.0.0.0)
- 0.761231 /NodeList/1/DeviceList/1/$ns3::PointToPointNetDevice/TxQueue/Dequeue ns3::PppHeader (Point-to-Point Protocol: IP (0x0021)) ns3::Ipv4Header (tos 0x0 DSCP Default ECN Not-ECT ttl 255 id 0 protocol 17 offset (bytes) 0 flags [none] length: 92 10.0.2.2 > 10.0.2.1) ns3::UdpHeader (length: 72 520 > 520) ns3::RipHeader (command 2 | prefix 10.0.0.0/24 Metric 2 Tag 0 Next Hop 0.0.0.0 | prefix 10.0.1.0/24 Metric 1 Tag 0 Next Hop 0.0.0.0 | prefix 10.0.2.0/24 Metric 16 Tag 0 Next Hop 0.0.0.0)
r 1.0139 /NodeList/0/DeviceList/1/$ns3::PointToPointNetDevice/MacRx ns3::PppHeader (Point-to-Point Protocol: IP (0x0021)) ns3::Ipv4Header (tos 0x0 DSCP Default ECN Not-ECT ttl 255 id 0 protocol 17 offset (bytes) 0 flags [none] length: 92 10.0.2.2 > 10.0.2.1) ns3::UdpHeader (length: 72 520 > 520) ns3::RipHeader (command 2 | prefix 10.0.0.0/24 Metric 2 Tag 0 Next Hop 0.0.0.0 | prefix 10.0.1.0/24 Metric 1 Tag 0 Next Hop 0.0.0.0 | prefix 10.0.2.0/24 Metric 16 Tag 0 Next Hop 0.0.0.0)
+ 1.6972 /NodeList/1/DeviceList/0/$ns3::PointToPointNetDevice/TxQueue/Enqueue ns3::PppHeader (Point-to-Point Protocol: IP (0x0021)) ns3::Ipv4Header (tos 0x0 DSCP Default ECN Not-ECT ttl 1 id 1 protocol 17 offset (bytes) 0 flags [none] length: 72 10.0.1.2 > 224.0.0.9) ns3::UdpHeader (length: 52 520 > 520) ns3::RipHeader (command 2 | prefix 10.0.0.0/24 Metric 16 Tag 0 Next Hop 0.0.0.0 | prefix 10.0.2.0/24 Metric 1 Tag 0 Next Hop 0.0.0.0)
- 1.6972 /NodeList/1/DeviceList/0/$ns3::PointToPointNetDevice/TxQueue/Dequeue ns3::PppHeader (Point-to-Point Protocol: IP (0x0021)) ns3::Ipv4Header (tos 0x0 DSCP Default ECN Not-ECT ttl 1 id 1 protocol 17 offset (bytes) 0 flags [none] length: 72 10.0.1.2 > 224.0.0.9) ns3::UdpHeader (length: 52 520 > 520) ns3::RipHeader (command 2 | prefix 10.0.0.0/24 Metric 16 Tag 0 Next Hop 0.0.0.0 | prefix 10.0.2.0/24 Metric 1 Tag 0 Next Hop 0.0.0.0)
+ 1.6972 /NodeList/1/DeviceList/1/$ns3::PointToPointNetDevice/TxQueue/Enqueue ns3::PppHeader (Point-to-Point Protocol: IP (0x0021)) ns3::Ipv4Header (tos 0x0 DSCP Default ECN Not-ECT ttl 1 id 1 protocol 17 offset (bytes) 0 flags [none] length: 72 10.0.2.2 > 224.0.0.9) ns3::UdpHeader (length: 52 520 > 520) ns3::RipHeader (command 2 | prefix 10.0.0.0/24 Metric 2 Tag 0 Next Hop 0.0.0.0 | prefix 10.0.1.0/24 Metric 1 Tag 0 Next Hop 0.0.0.0)
- 1.6972 /NodeList/1/DeviceList/1/$ns3::PointToPointNetDevice/TxQueue/Dequeue ns3::PppHeader (Point-to-Point Protocol: IP (0x0021)) ns3::Ipv4Header (tos 0x0 DSCP Default ECN Not-ECT ttl 1 id 1 protocol 17 offset (bytes) 0 flags [none] length: 72 10.0.2.2 > 224.0.0.9) ns3::UdpHeader (length: 52 520 > 520) ns3::RipHeader (command 2 | prefix 10.0.0.0/24 Metric 2 Tag 0 Next Hop 0.0.0.0 | prefix 10.0.1.0/24 Metric 1 Tag 0 Next Hop 0.0.0.0)
r 1.69979 /NodeList/2/DeviceList/1/$ns3::PointToPointNetDevice/MacRx ns3::PppHeader (Point-to-Point Protocol: IP (0x0021)) ns3::Ipv4Header (tos 0x0 DSCP Default ECN Not-ECT ttl 1 id 1 protocol 17 offset (bytes) 0 flags [none] length: 72 10.0.1.2 > 224.0.0.9) ns3::UdpHeader (length: 52 520 > 520) ns3::RipHeader (command 2 | prefix 10.0.0.0/24 Metric 16 Tag 0 Next Hop 0.0.0.0 | prefix 10.0.2.0/24 Metric 1 Tag 0 Next Hop 0.0.0.0)
r 1.89653 /NodeList/0/DeviceList/1/$ns3::PointToPointNetDevice/MacRx ns3::PppHeader (Point-to-Point Protocol: IP (0x0021)) ns3::Ipv4Header (tos 0x0 DSCP Default ECN Not-ECT ttl 1 id 1 protocol 17 offset (bytes) 0 flags [none] length: 72 10.0.2.2 > 224.0.0.9) ns3::UdpHeader (length: 52 520 > 520) ns3::RipHeader (command 2 | prefix 10.0.0.0/24 Metric 2 Tag 0 Next Hop 0.0.0.0 | prefix 10.0.1.0/24 Metric 1 Tag 0 Next Hop 0.0.0.0)
+ 2 /NodeList/0/DeviceList/1/$ns3::PointToPointNetDevice/TxQueue/Enqueue ns3::PppHeader (Point-to-Point Protocol: IP (0x0021)) ns3::Ipv4Header (tos 0x0 DSCP Default ECN Not-ECT ttl 64 id 1 protocol 17 offset (bytes) 0 flags [none] length: 1052 10.0.2.1 > 10.0.2.2) ns3::UdpHeader (length: 1032 49153 > 9) Payload (size=1024)
- 2 /NodeList/0/DeviceList/1/$ns3::PointToPointNetDevice/TxQueue/Dequeue ns3::PppHeader (Point-to-Point Protocol: IP (0x0021)) ns3::Ipv4Header (tos 0x0 DSCP Default ECN Not-ECT ttl 64 id 1 protocol 17 offset (bytes) 0 flags [none] length: 1052 10.0.2.1 > 10.0.2.2) ns3::UdpHeader (length: 1032 49153 > 9) Payload (size=1024)
+ 2.10965 /NodeList/2/DeviceList/0/$ns3::PointToPointNetDevice/TxQueue/Enqueue ns3::PppHeader (Point-to-Point Protocol: IP (0x0021)) ns3::Ipv4Header (tos 0x0 DSCP Default ECN Not-ECT ttl 1 id 1 protocol 17 offset (bytes) 0 flags [none] length: 72 10.0.0.2 > 224.0.0.9) ns3::UdpHeader (length: 52 520 > 520) ns3::RipHeader (command 2 | prefix 10.0.2.0/24 Metric 16 Tag 0 Next Hop 0.0.0.0 | prefix 10.0.1.0/24 Metric 1 Tag 0 Next Hop 0.0.0.0)
- 2.10965 /NodeList/2/DeviceList/0/$ns3::PointToPointNetDevice/TxQueue/Dequeue ns3::PppHeader (Point-to-Point Protocol: IP (0x0021)) ns3::Ipv4Header (tos 0x0 DSCP Default ECN Not-ECT ttl 1 id 1 protocol 17 offset (bytes) 0 flags [none] length: 72 10.0.0.2 > 224.0.0.9) ns3::UdpHeader (length: 52 520 > 520) ns3::RipHeader (command 2 | prefix 10.0.2.0/24 Metric 16 Tag 0 Next Hop 0.0.0.0 | prefix 10.0.1.0/24 Metric 1 Tag 0 Next Hop 0.0.0.0)
+ 2.10965 /NodeList/2/DeviceList/1/$ns3::PointToPointNetDevice/TxQueue/Enqueue ns3::PppHeader (Point-to-Point Protocol: IP (0x0021)) ns3::Ipv4Header (tos 0x0 DSCP Default ECN Not-ECT ttl 1 id 1 protocol 17 offset (bytes) 0 flags [none] length: 72 10.0.1.1 > 224.0.0.9) ns3::UdpHeader (length: 52 520 > 520) ns3::RipHeader (command 2 | prefix 10.0.2.0/24 Metric 2 Tag 0 Next Hop 0.0.0.0 | prefix 10.0.0.0/24 Metric 1 Tag 0 Next Hop 0.0.0.0)
- 2.10965 /NodeList/2/DeviceList/1/$ns3::PointToPointNetDevice/TxQueue/Dequeue ns3::PppHeader (Point-to-Point Protocol: IP (0x0021)) ns3::Ipv4Header (tos 0x0 DSCP Default ECN Not-ECT ttl 1 id 1 protocol 17 offset (bytes) 0 flags [none] length: 72 10.0.1.1 > 224.0.0.9) ns3::UdpHeader (length: 52 520 > 520) ns3::RipHeader (command 2 | prefix 10.0.2.0/24 Metric 2 Tag 0 Next Hop 0.0.0.0 | prefix 10.0.0.0/24 Metric 1 Tag 0 Next Hop 0.0.0.0)
r 2.11224 /NodeList/0/DeviceList/0/$ns3::PointToPointNetDevice/MacRx ns3::PppHeader (Point-to-Point Protocol: IP (0x0021)) ns3::Ipv4Header (tos 0x0 DSCP Default ECN Not-ECT ttl 1 id 1 protocol 17 offset (bytes) 0 flags [none] length: 72 10.0.0.2 > 224.0.0.9) ns3::UdpHeader (length: 52 520 > 520) ns3::RipHeader (command 2 | prefix 10.0.2.0/24 Metric 16 Tag 0 Next Hop 0.0.0.0 | prefix 10.0.1.0/24 Metric 1 Tag 0 Next Hop 0.0.0.0)
r 2.11224 /NodeList/1/DeviceList/0/$ns3::PointToPointNetDevice/MacRx ns3::PppHeader (Point-to-Point Protocol: IP (0x0021)) ns3::Ipv4Header (tos 0x0 DSCP Default ECN Not-ECT ttl 1 id 1 protocol 17 offset (bytes) 0 flags [none] length: 72 10.0.1.1 > 224.0.0.9) ns3::UdpHeader (length: 52 520 > 520) ns3::RipHeader (command 2 | prefix 10.0.2.0/24 Metric 2 Tag 0 Next Hop 0.0.0.0 | prefix 10.0.0.0/24 Metric 1 Tag 0 Next Hop 0.0.0.0)
+ 3 /NodeList/0/DeviceList/1/$ns3::PointToPointNetDevice/TxQueue/Enqueue ns3::PppHeader (Point-to-Point Protocol: IP (0x0021)) ns3::Ipv4Header (tos 0x0 DSCP Default ECN Not-ECT ttl 64 id 2 protocol 17 offset (bytes) 0 flags [none] length: 1052 10.0.2.1 > 10.0.2.2) ns3::UdpHeader (length: 1032 49153 > 9) Payload (size=1024)
+ 3.78997 /NodeList/0/DeviceList/0/$ns3::PointToPointNetDevice/TxQueue/Enqueue ns3::PppHeader (Point-to-Point Protocol: IP (0x0021)) ns3::Ipv4Header (tos 0x0 DSCP Default ECN Not-ECT ttl 1 id 1 protocol 17 offset (bytes) 0 flags [none] length: 72 10.0.0.1 > 224.0.0.9) ns3::UdpHeader (length: 52 520 > 520) ns3::RipHeader (command 2 | prefix 10.0.1.0/24 Metric 16 Tag 0 Next Hop 0.0.0.0 | prefix 10.0.2.0/24 Metric 1 Tag 0 Next Hop 0.0.0.0)
- 3.78997 /NodeList/0/DeviceList/0/$ns3::PointToPointNetDevice/TxQueue/Dequeue ns3::PppHeader (Point-to-Point Protocol: IP (0x0021)) ns3::Ipv4Header (tos 0x0 DSCP Default ECN Not-ECT ttl 1 id 1 protocol 17 offset (bytes) 0 flags [none] length: 72 10.0.0.1 > 224.0.0.9) ns3::UdpHeader (length: 52 520 > 520) ns3::RipHeader (command 2 | prefix 10.0.1.0/24 Metric 16 Tag 0 Next Hop 0.0.0.0 | prefix 10.0.2.0/24 Metric 1 Tag 0 Next Hop 0.0.0.0)
+ 3.78997 /NodeList/0/DeviceList/1/$ns3::PointToPointNetDevice/TxQueue/Enqueue ns3::PppHeader (Point-to-Point Protocol: IP (0x0021)) ns3::Ipv4Header (tos 0x0 DSCP Default ECN Not-ECT ttl 1 id 1 protocol 17 offset (bytes) 0 flags [none] length: 72 10.0.2.1 > 224.0.0.9) ns3::UdpHeader (length: 52 520 > 520) ns3::RipHeader (command 2 | prefix 10.0.1.0/24 Metric 2 Tag 0 Next Hop 0.0.0.0 | prefix 10.0.0.0/24 Metric 1 Tag 0 Next Hop 0.0.0.0)
r 3.79256 /NodeList/2/DeviceList/0/$ns3::PointToPointNetDevice/MacRx ns3::PppHeader (Point-to-Point Protocol: IP (0x0021)) ns3::Ipv4Header (tos 0x0 DSCP Default ECN Not-ECT ttl 1 id 1 protocol 17 offset (bytes) 0 flags [none] length: 72 10.0.0.1 > 224.0.0.9) ns3::UdpHeader (length: 52 520 > 520) ns3::RipHeader (command 2 | prefix 10.0.1.0/24 Metric 16 Tag 0 Next Hop 0.0.0.0 | prefix 10.0.2.0/24 Metric 1 Tag 0 Next Hop 0.0.0.0)
+ 4 /NodeList/0/DeviceList/1/$ns3::PointToPointNetDevice/TxQueue/Enqueue ns3::PppHeader (Point-to-Point Protocol: IP (0x0021)) ns3::Ipv4Header (tos 0x0 DSCP Default ECN Not-ECT ttl 64 id 3 protocol 17 offset (bytes) 0 flags [none] length: 1052 10.0.2.1 > 10.0.2.2) ns3::UdpHeader (length: 1032 49153 > 9) Payload (size=1024)
- 4.81067 /NodeList/0/DeviceList/1/$ns3::PointToPointNetDevice/TxQueue/Dequeue ns3::PppHeader (Point-to-Point Protocol: IP (0x0021)) ns3::Ipv4Header (tos 0x0 DSCP Default ECN Not-ECT ttl 64 id 2 protocol 17 offset (bytes) 0 flags [none] length: 1052 10.0.2.1 > 10.0.2.2) ns3::UdpHeader (length: 1032 49153 > 9) Payload (size=1024)
r 4.81267 /NodeList/1/DeviceList/1/$ns3::PointToPointNetDevice/MacRx ns3::PppHeader (Point-to-Point Protocol: IP (0x0021)) ns3::Ipv4Header (tos 0x0 DSCP Default ECN Not-ECT ttl 64 id 1 protocol 17 offset (bytes) 0 flags [none] length: 1052 10.0.2.1 > 10.0.2.2) ns3::UdpHeader (length: 1032 49153 > 9) Payload (size=1024)
+ 4.81267 /NodeList/1/DeviceList/1/$ns3::PointToPointNetDevice/TxQueue/Enqueue ns3::PppHeader (Point-to-Point Protocol: IP (0x0021)) ns3::Ipv4Header (tos 0x0 DSCP Default ECN Not-ECT ttl 64 id 1 protocol 17 offset (bytes) 0 flags [none] length: 1052 10.0.2.2 > 10.0.2.1) ns3::UdpHeader (length: 1032 9 > 49153) Payload (size=1024)
- 4.81267 /NodeList/1/DeviceList/1/$ns3::PointToPointNetDevice/TxQueue/Dequeue ns3::PppHeader (Point-to-Point Protocol: IP (0x0021)) ns3::Ipv4Header (tos 0x0 DSCP Default ECN Not-ECT ttl 64 id 1 protocol 17 offset (bytes) 0 flags [none] length: 1052 10.0.2.2 > 10.0.2.1) ns3::UdpHeader (length: 1032 9 > 49153) Payload (size=1024)
+ 5 /NodeList/0/DeviceList/1/$ns3::PointToPointNetDevice/TxQueue/Enqueue ns3::PppHeader (Point-to-Point Protocol: IP (0x0021)) ns3::Ipv4Header (tos 0x0 DSCP Default ECN Not-ECT ttl 64 id 4 protocol 17 offset (bytes) 0 flags [none] length: 1052 10.0.2.1 > 10.0.2.2) ns3::UdpHeader (length: 1032 49153 > 9) Payload (size=1024)
+ 6 /NodeList/0/DeviceList/1/$ns3::PointToPointNetDevice/TxQueue/Enqueue ns3::PppHeader (Point-to-Point Protocol: IP (0x0021)) ns3::Ipv4Header (tos 0x0 DSCP Default ECN Not-ECT ttl 64 id 5 protocol 17 offset (bytes) 0 flags [none] length: 1052 10.0.2.1 > 10.0.2.2) ns3::UdpHeader (length: 1032 49153 > 9) Payload (size=1024)
+ 7 /NodeList/0/DeviceList/1/$ns3::PointToPointNetDevice/TxQueue/Enqueue ns3::PppHeader (Point-to-Point Protocol: IP (0x0021)) ns3::Ipv4Header (tos 0x0 DSCP Default ECN Not-ECT ttl 64 id 6 protocol 17 offset (bytes) 0 flags [none] length: 1052 10.0.2.1 > 10.0.2.2) ns3::UdpHeader (length: 1032 49153 > 9) Payload (size=1024)
- 7.62133 /NodeList/0/DeviceList/1/$ns3::PointToPointNetDevice/TxQueue/Dequeue ns3::PppHeader (Point-to-Point Protocol: IP (0x0021)) ns3::Ipv4Header (tos 0x0 DSCP Default ECN Not-ECT ttl 1 id 1 protocol 17 offset (bytes) 0 flags [none] length: 72 10.0.2.1 > 224.0.0.9) ns3::UdpHeader (length: 52 520 > 520) ns3::RipHeader (command 2 | prefix 10.0.1.0/24 Metric 2 Tag 0 Next Hop 0.0.0.0 | prefix 10.0.0.0/24 Metric 1 Tag 0 Next Hop 0.0.0.0)
r 7.62333 /NodeList/1/DeviceList/1/$ns3::PointToPointNetDevice/MacRx ns3::PppHeader (Point-to-Point Protocol: IP (0x0021)) ns3::Ipv4Header (tos 0x0 DSCP Default ECN Not-ECT ttl 64 id 2 protocol 17 offset (bytes) 0 flags [none] length: 1052 10.0.2.1 > 10.0.2.2) ns3::UdpHeader (length: 1032 49153 > 9) Payload (size=1024)
+ 7.62333 /NodeList/1/DeviceList/1/$ns3::PointToPointNetDevice/TxQueue/Enqueue ns3::PppHeader (Point-to-Point Protocol: IP (0x0021)) ns3::Ipv4Header (tos 0x0 DSCP Default ECN Not-ECT ttl 64 id 2 protocol 17 offset (bytes) 0 flags [none] length: 1052 10.0.2.2 > 10.0.2.1) ns3::UdpHeader (length: 1032 9 > 49153) Payload (size=1024)
- 7.62333 /NodeList/1/DeviceList/1/$ns3::PointToPointNetDevice/TxQueue/Dequeue ns3::PppHeader (Point-to-Point Protocol: IP (0x0021)) ns3::Ipv4Header (tos 0x0 DSCP Default ECN Not-ECT ttl 64 id 2 protocol 17 offset (bytes) 0 flags [none] length: 1052 10.0.2.2 > 10.0.2.1) ns3::UdpHeader (length: 1032 9 > 49153) Payload (size=1024)
r 7.62533 /NodeList/0/DeviceList/1/$ns3::PointToPointNetDevice/MacRx ns3::PppHeader (Point-to-Point Protocol: IP (0x0021)) ns3::Ipv4Header (tos 0x0 DSCP Default ECN Not-ECT ttl 64 id 1 protocol 17 offset (bytes) 0 flags [none] length: 1052 10.0.2.2 > 10.0.2.1) ns3::UdpHeader (length: 1032 9 > 49153) Payload (size=1024)
- 7.81867 /NodeList/0/DeviceList/1/$ns3::PointToPointNetDevice/TxQueue/Dequeue ns3::PppHeader (Point-to-Point Protocol: IP (0x0021)) ns3::Ipv4Header (tos 0x0 DSCP Default ECN Not-ECT ttl 64 id 3 protocol 17 offset (bytes) 0 flags [none] length: 1052 10.0.2.1 > 10.0.2.2) ns3::UdpHeader (length: 1032 49153 > 9) Payload (size=1024)
r 7.82067 /NodeList/1/DeviceList/1/$ns3::PointToPointNetDevice/MacRx ns3::PppHeader (Point-to-Point Protocol: IP (0x0021)) ns3::Ipv4Header (tos 0x0 DSCP Default ECN Not-ECT ttl 1 id 1 protocol 17 offset (bytes) 0 flags [none] length: 72 10.0.2.1 > 224.0.0.9) ns3::UdpHeader (length: 52 520 > 520) ns3::RipHeader (command 2 | prefix 10.0.1.0/24 Metric 2 Tag 0 Next Hop 0.0.0.0 | prefix 10.0.0.0/24 Metric 1 Tag 0 Next Hop 0.0.0.0)
+ 8 /NodeList/0/DeviceList/1/$ns3::PointToPointNetDevice/TxQueue/Enqueue ns3::PppHeader (Point-to-Point Protocol: IP (0x0021)) ns3::Ipv4Header (tos 0x0 DSCP Default ECN Not-ECT ttl 64 id 7 protocol 17 offset (bytes) 0 flags [none] length: 1052 10.0.2.1 > 10.0.2.2) ns3::UdpHeader (length: 1032 49153 > 9) Payload (size=1024)
+ 9 /NodeList/0/DeviceList/1/$ns3::PointToPointNetDevice/TxQueue/Enqueue ns3::PppHeader (Point-to-Point Protocol: IP (0x0021)) ns3::Ipv4Header (tos 0x0 DSCP Default ECN Not-ECT ttl 64 id 8 protocol 17 offset (bytes) 0 flags [none] length: 1052 10.0.2.1 > 10.0.2.2) ns3::UdpHeader (length: 1032 49153 > 9) Payload (size=1024)
+ 10 /NodeList/0/DeviceList/1/$ns3::PointToPointNetDevice/TxQueue/Enqueue ns3::PppHeader (Point-to-Point Protocol: IP (0x0021)) ns3::Ipv4Header (tos 0x0 DSCP Default ECN Not-ECT ttl 64 id 9 protocol 17 offset (bytes) 0 flags [none] length: 1052 10.0.2.1 > 10.0.2.2) ns3::UdpHeader (length: 1032 49153 > 9) Payload (size=1024)
r 10.436 /NodeList/0/DeviceList/1/$ns3::PointToPointNetDevice/MacRx ns3::PppHeader (Point-to-Point Protocol: IP (0x0021)) ns3::Ipv4Header (tos 0x0 DSCP Default ECN Not-ECT ttl 64 id 2 protocol 17 offset (bytes) 0 flags [none] length: 1052 10.0.2.2 > 10.0.2.1) ns3::UdpHeader (length: 1032 9 > 49153) Payload (size=1024)